------------------------------------------------------------
          Invoking FHI-aims ...

          When using FHI-aims, please cite the following reference:

          Volker Blum, Ralf Gehrke, Felix Hanke, Paula Havu,
          Ville Havu, Xinguo Ren, Karsten Reuter, and Matthias Scheffler,
          'Ab Initio Molecular Simulations with Numeric Atom-Centered Orbitals',
          Computer Physics Communications 180, 2175-2196 (2009)

          For any questions about FHI-aims, please visit the aimsclub website
          with its forums and wiki. Contributions to both the forums and the
          wiki are warmly encouraged - they are for you, and everyone is welcome there.

------------------------------------------------------------



  Date     :  20200420, Time     :  204651.224
  Time zero on CPU 1             :   0.930540000000000E-01  s.
  Internal wall clock time zero  :           356647611.224  s.

  FHI-aims created a unique identifier for this run for later identification
  aims_uuid : 4D741CE3-4FEE-4565-A31A-8255E0132855

  Build configuration of the current instance of FHI-aims
  -------------------------------------------------------
  FHI-aims version      : 200112
  Commit number         : 23daeca3f
  CMake host system     : Linux-3.10.0-693.21.1.el7.x86_64
  CMake version         : 3.13.3
  Fortran compiler      : /sw/installed/impi/2018.4.274-iccifort-2019.1.144-GCC-8.2.0-2.31.1/bin64/mpiifort (Intel) version 19.0.0.20181018
  Fortran compiler flags: -O3 -ip -fp-model precise
  C compiler            : /sw/installed/impi/2018.4.274-iccifort-2019.1.144-GCC-8.2.0-2.31.1/bin64/mpiicc (Intel) version 19.0.0.20181018
  C compiler flags      : -O3 -ip -fp-model precise
  Architecture          :
  Using MPI
  Using Scalapack
  Using C files
  Using LibXC
  Using SPGlib
  Using i-PI
  Using RLSY
  Linking against: /sw/installed/imkl/2019.1.144-iimpi-2019a/mkl/lib/intel64/libmkl_intel_lp64.so
                   /sw/installed/imkl/2019.1.144-iimpi-2019a/mkl/lib/intel64/libmkl_sequential.so
                   /sw/installed/imkl/2019.1.144-iimpi-2019a/mkl/lib/intel64/libmkl_core.so
                   /sw/installed/imkl/2019.1.144-iimpi-2019a/mkl/lib/intel64/libmkl_blacs_intelmpi_lp64.so
                   /sw/installed/imkl/2019.1.144-iimpi-2019a/mkl/lib/intel64/libmkl_scalapack_lp64.so

  Using       24 parallel tasks.
  Task        0 on host taurusi6535.taurus.hrsk.tu-dresden.de reporting.
  Task        1 on host taurusi6535.taurus.hrsk.tu-dresden.de reporting.
  Task        2 on host taurusi6535.taurus.hrsk.tu-dresden.de reporting.
  Task        3 on host taurusi6535.taurus.hrsk.tu-dresden.de reporting.
  Task        4 on host taurusi6535.taurus.hrsk.tu-dresden.de reporting.
  Task        5 on host taurusi6535.taurus.hrsk.tu-dresden.de reporting.
  Task        6 on host taurusi6535.taurus.hrsk.tu-dresden.de reporting.
  Task        7 on host taurusi6535.taurus.hrsk.tu-dresden.de reporting.
  Task        8 on host taurusi6535.taurus.hrsk.tu-dresden.de reporting.
  Task        9 on host taurusi6535.taurus.hrsk.tu-dresden.de reporting.
  Task       10 on host taurusi6535.taurus.hrsk.tu-dresden.de reporting.
  Task       11 on host taurusi6535.taurus.hrsk.tu-dresden.de reporting.
  Task       12 on host taurusi6535.taurus.hrsk.tu-dresden.de reporting.
  Task       13 on host taurusi6535.taurus.hrsk.tu-dresden.de reporting.
  Task       14 on host taurusi6535.taurus.hrsk.tu-dresden.de reporting.
  Task       15 on host taurusi6535.taurus.hrsk.tu-dresden.de reporting.
  Task       16 on host taurusi6535.taurus.hrsk.tu-dresden.de reporting.
  Task       17 on host taurusi6535.taurus.hrsk.tu-dresden.de reporting.
  Task       18 on host taurusi6535.taurus.hrsk.tu-dresden.de reporting.
  Task       19 on host taurusi6535.taurus.hrsk.tu-dresden.de reporting.
  Task       20 on host taurusi6535.taurus.hrsk.tu-dresden.de reporting.
  Task       21 on host taurusi6535.taurus.hrsk.tu-dresden.de reporting.
  Task       22 on host taurusi6535.taurus.hrsk.tu-dresden.de reporting.
  Task       23 on host taurusi6535.taurus.hrsk.tu-dresden.de reporting.

  Performing system and environment tests:
  | Environment variable OMP_NUM_THREADS correctly set to 1.
  | Maximum stacksize for task 0: unlimited
  | Maximum stacksize for task 1: unlimited
  | Maximum stacksize for task 2: unlimited
  | Maximum stacksize for task 3: unlimited
  | Maximum stacksize for task 4: unlimited
  | Maximum stacksize for task 5: unlimited
  | Maximum stacksize for task 6: unlimited
  | Maximum stacksize for task 7: unlimited
  | Maximum stacksize for task 8: unlimited
  | Maximum stacksize for task 9: unlimited
  | Maximum stacksize for task 10: unlimited
  | Maximum stacksize for task 11: unlimited
  | Maximum stacksize for task 12: unlimited
  | Maximum stacksize for task 13: unlimited
  | Maximum stacksize for task 14: unlimited
  | Maximum stacksize for task 15: unlimited
  | Maximum stacksize for task 16: unlimited
  | Maximum stacksize for task 17: unlimited
  | Maximum stacksize for task 18: unlimited
  | Maximum stacksize for task 19: unlimited
  | Maximum stacksize for task 20: unlimited
  | Maximum stacksize for task 21: unlimited
  | Maximum stacksize for task 22: unlimited
  | Maximum stacksize for task 23: unlimited
  | Current stacksize for task 0: unlimited
  | Current stacksize for task 1: unlimited
  | Current stacksize for task 2: unlimited
  | Current stacksize for task 3: unlimited
  | Current stacksize for task 4: unlimited
  | Current stacksize for task 5: unlimited
  | Current stacksize for task 6: unlimited
  | Current stacksize for task 7: unlimited
  | Current stacksize for task 8: unlimited
  | Current stacksize for task 9: unlimited
  | Current stacksize for task 10: unlimited
  | Current stacksize for task 11: unlimited
  | Current stacksize for task 12: unlimited
  | Current stacksize for task 13: unlimited
  | Current stacksize for task 14: unlimited
  | Current stacksize for task 15: unlimited
  | Current stacksize for task 16: unlimited
  | Current stacksize for task 17: unlimited
  | Current stacksize for task 18: unlimited
  | Current stacksize for task 19: unlimited
  | Current stacksize for task 20: unlimited
  | Current stacksize for task 21: unlimited
  | Current stacksize for task 22: unlimited
  | Current stacksize for task 23: unlimited
  | Checking for scalapack...
  | Testing pdtran()...
  | All pdtran() tests passed.

  Obtaining array dimensions for all initial allocations:
  
  -----------------------------------------------------------------------
  Parsing control.in (first pass over file, find array dimensions only).
  The contents of control.in will be repeated verbatim below
  unless switched off by setting 'verbatim_writeout .false.' .
  in the first line of control.in .
  -----------------------------------------------------------------------
  
  #===============================================================================
  # FHI-aims file: ./control.in
  # Created using the Atomic Simulation Environment (ASE)
  # Thu Apr  2 11:27:09 2020
  #===============================================================================
  xc                                 pbe
  # include_spin_orbit
  # vdw_correction_hirshfeld
  many_body_dispersion
  spin                               none
  k_grid 	 	 19 19 16
  relativistic                       atomic_zora scalar
  energy_tolerance 1e-2
  harmonic_length_scale  0.015
  ### SCF settings
  adjust_scf 	 always 	 3
  # frozen_core_scf 	 .true.
  # charge_mix_param  0.05
  # occupation_type 	 gaussian 	 0.01
  # sc_accuracy_eev   1E-3 	 	 # sum of eigenvalues convergence
  # sc_accuracy_etot  1E-6 	 	 # total energy convergence
  # sc_accuracy_rho   1E-3 	 	 # electron density convergence
  # elsi_restart 	 read_and_write 	 1000
  ### geometry optimisation section
  relax_geometry 	 bfgs 	 1E-2
  relax_unit_cell 	 full
  #===============================================================================
  
  ################################################################################
  #
  #  FHI-aims code project
  # Volker Blum, Fritz Haber Institute Berlin, 2009
  #
  #  Suggested "tight" defaults for Pd atom (to be pasted into control.in file)
  #
  ################################################################################
    species        Pd
  #     global species definitions
      nucleus             46
      mass                106.42
  #
      l_hartree           6
  #
      cut_pot             4.0  2.0  1.0
      basis_dep_cutoff    1e-4
  #
      radial_base         62 7.0
      radial_multiplier   2
      angular_grids specified
        division   0.3627   50
        division   0.7349  110
        division   1.0624  194
        division   1.2496  302
        division   1.6740  434
  #      division   2.0126  590
  #      division   2.0830  770
  #      division   2.7936 1202
  #       outer_grid  974
        outer_grid  434
  ################################################################################
  #
  #  Definition of "minimal" basis
  #
  ################################################################################
  #     valence basis states
      valence      5  s   1.
      valence      4  p   6.
      valence      4  d   9.
  #     ion occupancy
      ion_occ     5  s   0.
      ion_occ     4  p   6.
      ion_occ     4  d   8.
  ################################################################################
  #
  #  Suggested additional basis functions. For production calculations,
  #  uncomment them one after another (the most important basis functions are
  #  listed first).
  #
  #  Constructed for dimers: 2.0 A, 2.275 A, 2.75 A, 3.75 A
  #
  ################################################################################
  #  "First tier" - max. impr. -120.76  meV, min. impr. -5.71 meV
       ionic 5 p auto
       hydro 4 f 8
       hydro 5 g 10
       hydro 3 s 2.6
       hydro 3 d 2.5
  #  "Second tier" - max. impr. -5.00  meV, min. impr. -0.62 meV
  #     hydro 5 f 17.2
  #     hydro 6 h 14
  #     hydro 4 d 4
  #     hydro 5 f 7.6
  #     hydro 3 p 3.3
  #     hydro 4 s 9.4
  #  "Third tier" - max. impr. -0.54  meV, min. impr. -0.14 meV
  #     hydro 4 f 20
  #     hydro 5 g 12.8
  #     hydro 5 d 9.8
  #     hydro 6 h 15.2
  #     hydro 5 s 10
  #     hydro 6 p 9.8
  #  "Fourth tier" - max. impr. -0.15  meV, min. impr. -0.05 meV
  #     hydro 5 f 9.2
  #     hydro 2 s 5.6
  #     hydro 5 f 43.2
  #     hydro 5 d 13.2
  #     hydro 5 g 14
  #     hydro 4 p 4.7
  ################################################################################
  #
  #  FHI-aims code project
  # Volker Blum, Fritz Haber Institute Berlin, 2009
  #
  #  Suggested "tight" defaults for Se atom (to be pasted into control.in file)
  #
  ################################################################################
    species        Se
  #     global species definitions
      nucleus             34
      mass                78.96
  #
      l_hartree           6
  #
      cut_pot             4.0          2.0  1.0
      basis_dep_cutoff    1e-4
  #
      radial_base         55 7.0
      radial_multiplier   2
      angular_grids       specified
        division   0.0830  110
        division   0.1357  194
        division   0.7377  302
        division   0.8610  434
  #      division   0.9640  590
  #      division   1.0773  770
  #      division   2.5539  974
  #      outer_grid  974
        outer_grid  434
  ################################################################################
  #
  #  Definition of "minimal" basis
  #
  ################################################################################
  #     valence basis states
      valence      4  s   2.
      valence      4  p   4.
      valence      3  d  10.
  #     ion occupancy
      ion_occ      4  s   1.
      ion_occ      4  p   3.
      ion_occ      3  d  10.
  ################################################################################
  #
  #  Suggested additional basis functions. For production calculations,
  #  uncomment them one after another (the most important basis functions are
  #  listed first).
  #
  #  Constructed for dimers: 1.85 A, 2.15 A, 2.50 A, 3.00 A, 4.00 A
  #
  ################################################################################
  #  "First tier" - improvements: -336.21 meV to -36.85 meV
       hydro 3 d 4.3
       hydro 2 p 1.6
       hydro 4 f 7.2
       ionic 4 s auto
  #  "Second tier" - improvements: -14.39 meV to -1.49 meV
  #     hydro 5 g 10.4
  #     hydro 4 p 4.5
  #     hydro 4 d 6.2
  #     hydro 4 f 11.2
  #     hydro 1 s 0.65
  #     hydro 6 h 15.2
  #  "Third tier" - improvements: -0.46 meV and below
  #     hydro 5 g 14.4
  #     ionic 4 d auto
  #     hydro 4 f 22.4
  #     hydro 5 f 7.4
  #     hydro 5 p 8
  #     hydro 5 s 9.4
  #  "Fourth tier" - improvements: -0.12 meV and below
  #     hydro 5 d 11.6
  #     hydro 6 h 18
  #     hydro 4 p 4
  #     hydro 5 f 16
  #     hydro 4 s 3.9
  #
  #
  
  -----------------------------------------------------------------------
  Completed first pass over input file control.in .
  -----------------------------------------------------------------------
  
  
  -----------------------------------------------------------------------
  Parsing geometry.in (first pass over file, find array dimensions only).
  The contents of geometry.in will be repeated verbatim below
  unless switched off by setting 'verbatim_writeout .false.' .
  in the first line of geometry.in .
  -----------------------------------------------------------------------
  
  #
  # This is the geometry file that corresponds to the current relaxation step.
  # If you do not want this file to be written, set the "write_restart_geometry" flag to .false.
  #  aims_uuid : 74E02ACA-A5BA-4120-A4DC-A8212CF3B47C
  #
  lattice_vector      5.85496233      0.00000000      0.00000000
  lattice_vector      0.00000000      5.95932024      0.00000000
  lattice_vector      0.00000000      0.00000000      7.43139602
  atom_frac       0.50241532      0.00207105      0.00190706 Pd
  atom_frac       0.00205800      0.00208362      0.50266426 Pd
  atom_frac       0.00214583      0.50244286      0.00195552 Pd
  atom_frac       0.50250304      0.50245513      0.50261546 Pd
  atom_frac       0.61428405      0.12007015      0.40432433 Se
  atom_frac       0.89104350      0.88488835      0.90453029 Se
  atom_frac       0.11390484      0.38453497      0.60074462 Se
  atom_frac       0.39062392      0.62041222      0.10024199 Se
  atom_frac       0.39066855      0.88490304      0.60074514 Se
  atom_frac       0.11393960      0.12007694      0.10026071 Se
  atom_frac       0.89101355      0.62040546      0.40432681 Se
  atom_frac       0.61426368      0.38452008      0.90454771 Se
  #
  # What follows is the current estimated Hessian matrix constructed by the BFGS algorithm.
  # This is NOT the true Hessian matrix of the system.
  # If you do not want this information here, switch it off using the "hessian_to_restart_geometry" keyword.
  #
  trust_radius             0.0122099144
  hessian_block                1       1           5.947659           0.059019          -2.193945           0.059019           6.44033
  hessian_block                1       2          -0.029216           0.496218           0.046031           0.314544           0.22160
  hessian_block                1       3          -0.057105           0.546350           0.038831          -0.063597          -0.13106
  hessian_block                1       4           0.500468           0.201030          -0.080436           0.111656          -0.49546
  hessian_block                1       5          -0.045182          -0.435908          -0.183579          -0.338657           0.34968
  hessian_block                1       6          -1.765071          -0.107131           0.590194           0.434334          -0.46192
  hessian_block                1       7          -0.359748           0.364523           0.271962           0.090673           0.17870
  hessian_block                1       8          -0.214753          -0.518783           0.337735          -0.325552          -1.90428
  hessian_block                1       9          -0.129079           0.007815           0.179832          -0.416033          -0.45847
  hessian_block                1      10          -2.295949           0.905536           1.059708           0.062559          -0.40373
  hessian_block                1      11           0.065098          -0.635450          -0.238738           0.241622           0.22549
  hessian_block                1      12          -0.051211          -0.883221           0.172402          -0.170566          -1.91384
  hessian_block                2       2           6.077245           0.341960           2.314430           0.341960           7.23105
  hessian_block                2       3           0.894154           0.837382           0.459270          -0.434919          -0.49746
  hessian_block                2       4           0.211646           0.629927           0.182552          -0.507292           0.62001
  hessian_block                2       5          -2.085992           0.019720          -0.995981           0.483882          -0.69741
  hessian_block                2       6          -0.543740          -0.070984           0.107732          -0.300552          -0.87889
  hessian_block                2       7           0.000588          -0.727087          -0.401826          -0.423287          -1.52799
  hessian_block                2       8          -0.229618          -0.591813          -0.326062           0.057667          -0.39752
  hessian_block                2       9          -2.037938           0.397498          -0.944338           0.592541          -0.79008
  hessian_block                2      10           0.501525          -0.169630          -0.006106           0.221052           0.91594
  hessian_block                2      11          -0.602072          -0.656390          -0.157000          -0.484414          -3.21717
  hessian_block                2      12          -0.590668          -0.325126          -0.206960          -0.042856           0.66496
  hessian_block                3       3           6.581736          -0.544768           2.416190          -0.544768           6.30013
  hessian_block                3       4           0.344846          -0.284909          -0.037318          -0.297533           0.10574
  hessian_block                3       5          -0.593411           0.148187          -0.303420          -0.208079           0.47295
  hessian_block                3       6          -0.761253           0.463066          -0.523824          -0.051568          -1.76443
  hessian_block                3       7           0.088887           0.146586           0.218840           0.226859          -0.14317
  hessian_block                3       8          -2.173398          -0.206739          -0.852215          -0.717143          -0.28669
  hessian_block                3       9          -0.288670           0.344242           0.127844          -0.016563          -0.19994
  hessian_block                3      10           0.480149           0.543397           0.173731           1.162053          -2.17785
  hessian_block                3      11          -0.448101           0.083809          -0.199788          -0.549071           0.27901
  hessian_block                3      12          -2.501920          -0.194355          -1.049016          -0.387920          -0.31019
  hessian_block                4       4           5.942273           0.169825          -1.954838           0.169825           6.97124
  hessian_block                4       5          -0.492809           0.606267           0.199033           0.102206          -2.27519
  hessian_block                4       6          -0.025113           0.496865           0.152617          -0.237584          -0.41686
  hessian_block                4       7          -2.004283          -0.950618           0.668251          -0.201497          -0.16238
  hessian_block                4       8          -0.286098          -0.235897          -0.189032           0.047738          -0.47059
  hessian_block                4       9          -0.270812           0.677353           0.159232           0.124846          -2.21465
  hessian_block                4      10          -0.417411          -0.457145          -0.186455          -0.142727           0.82573
  hessian_block                4      11          -1.818577           0.011893           0.897553          -0.830666          -1.32334
  hessian_block                4      12          -0.118217           0.374625          -0.027717           0.421813           0.48280
  hessian_block                5       5           5.353023          -0.378315          -1.204582          -0.378315           6.30476
  hessian_block                5       6           0.266551          -0.447589          -0.430109           0.207783          -0.23001
  hessian_block                5       7          -0.366290           1.148957           0.077917          -0.938233           0.06474
  hessian_block                5       8           0.132693           0.198283           0.444450           0.534625          -0.04833
  hessian_block                5       9          -1.352092          -0.403977           1.696825          -0.401169          -1.88247
  hessian_block                5      10          -0.139463           0.567447           0.471834           0.002447           0.00538
  hessian_block                5      11           0.513178          -0.955335          -0.025526           1.085935           0.17288
  hessian_block                5      12           0.375703           0.231178          -0.496177          -0.451335          -0.58994
  hessian_block                6       6           5.729358           0.427617           1.830004           0.427617           5.82966
  hessian_block                6       7          -0.075229          -0.147855          -0.026827           0.470369           0.19086
  hessian_block                6       8          -0.125336           0.395044           0.176451           0.127526           0.23085
  hessian_block                6       9           0.095447           0.124190           0.004322           0.288365           0.80126
  hessian_block                6      10          -1.999582          -1.326801          -2.824933          -1.025495          -2.06078
  hessian_block                6      11           0.277943           0.347999          -0.155376          -0.769453           0.53550
  hessian_block                6      12           0.491937           0.127395           0.275014           0.146846          -0.12820
  hessian_block                7       7           5.470117           0.521681           1.123086           0.521681           6.09767
  hessian_block                7       8          -0.013230          -0.108413           0.041148           0.018499          -0.42059
  hessian_block                7       9           0.365900           0.597764          -0.250600          -0.658179          -0.42307
  hessian_block                7      10           0.281348          -0.580165          -0.157180           0.065888          -0.33121
  hessian_block                7      11          -1.905247           0.438743          -1.684999           0.687430          -2.40583
  hessian_block                7      12           0.083098          -0.094494           0.522329          -0.469822           0.52930
  hessian_block                8       8           4.763179           0.092627          -0.931992           0.092627           5.65406
  hessian_block                8       9           0.237638          -0.514248          -0.209488           0.165196           0.17008
  hessian_block                8      10           0.069379          -0.238063           0.235427          -0.629716          -0.50122
  hessian_block                8      11           0.158176          -0.147976          -0.150378           0.589515           1.17545
  hessian_block                8      12          -0.752722           1.064302           1.744051           0.850697          -1.55416
  hessian_block                9       9           5.033343          -0.532657          -0.795470          -0.532657           6.45311
  hessian_block                9      10          -0.049261           0.261507          -0.143837          -0.193199          -0.07940
  hessian_block                9      11          -0.171558           0.871080          -0.092028          -0.725870           0.48459
  hessian_block                9      12           0.132993          -0.278933           0.682142           0.221088          -0.21391
  hessian_block               10      10           5.860824           0.567340           1.684740           0.567340           6.88193
  hessian_block               10      11          -0.177230           0.050763           0.446562           0.396048          -1.37264
  hessian_block               10      12          -0.548419          -0.140963          -0.182424          -0.469472          -0.05510
  hessian_block               11      11           5.556559           0.265439           0.794898           0.265439           7.98472
  hessian_block               11      12           0.117740           0.093486          -0.480614           0.325427          -0.89164
  hessian_block               12      12           4.927597           0.026102          -0.953032           0.026102           5.62696
  hessian_block_lv             1       1          23.680775          -3.280325           4.991467          -3.280325          24.12538
  hessian_block_lv_atom        1       1           0.236136           0.378694           0.057385          -0.478667          -0.66525
  hessian_block_lv_atom        1       2          -0.591836          -0.966545          -0.245134           0.184475          -0.23038
  hessian_block_lv_atom        1       3          -0.636412          -1.072898          -0.267143           0.259455           0.51108
  hessian_block_lv_atom        1       4           0.089351           0.086712          -0.005110           0.862053           0.87065
  hessian_block_lv_atom        1       5           0.290130           0.459264           0.369870           0.086966          -0.04014
  hessian_block_lv_atom        1       6           0.195914           0.009053          -0.256299          -0.467330          -0.25616
  hessian_block_lv_atom        1       7          -0.615047          -0.882418           0.088542          -0.761951          -1.03409
  hessian_block_lv_atom        1       8          -0.079400           0.198140          -0.249711           0.099216           0.25479
  hessian_block_lv_atom        1       9           0.134033           0.233923          -0.196447          -0.606454          -0.41439
  hessian_block_lv_atom        1      10          -0.259157          -0.018324           0.300345           0.566248           0.16365
  hessian_block_lv_atom        1      11           0.697301           1.077146          -0.009992           0.232415           0.84984
  hessian_block_lv_atom        1      12           0.538986           0.497250           0.413692           0.023575          -0.00958
  symmetry_n_params 39 3 36
  symmetry_params a1 b2 c3 x0 x1 x2 x3 x4 x5 x6 x7 x8 x9 x10 x11 x12 x13 x14 x15 x16 x17 x18 x19 x20 x21 x22 x23 x24 x25 x26 x27 x28 x
  symmetry_lv a1 , 0 , 0
  symmetry_lv 0 , b2 , 0
  symmetry_lv 0 , 0 , c3
  symmetry_frac x0 , x1 , x2
  symmetry_frac x3 , x4 , x5
  symmetry_frac x6 , x7 , x8
  symmetry_frac x9 , x10 , x11
  symmetry_frac x12 , x13 , x14
  symmetry_frac x15 , x16 , x17
  symmetry_frac x18 , x19 , x20
  symmetry_frac x21 , x22 , x23
  symmetry_frac x24 , x25 , x26
  symmetry_frac x27 , x28 , x29
  symmetry_frac x30 , x31 , x32
  symmetry_frac x33 , x34 , x35
  
  -----------------------------------------------------------------------
  Completed first pass over input file geometry.in .
  -----------------------------------------------------------------------
  

  Basic array size parameters:
  | Number of species                 :        2
  | Number of atoms                   :       12
  | Number of lattice vectors         :        3
  | Max. basis fn. angular momentum   :        4
  | Max. atomic/ionic basis occupied n:        5
  | Max. number of basis fn. types    :        3
  | Max. radial fns per species/type  :       10
  | Max. logarithmic grid size        :     1444
  | Max. radial integration grid size :      125
  | Max. angular integration grid size:      434
  | Max. angular grid division number :        8
  | Radial grid for Hartree potential :     1444
  | Number of spin channels           :        1

------------------------------------------------------------
          Reading file control.in.
------------------------------------------------------------
  XC: Using PBE gradient-corrected functionals.
  Using libMBD for calculating MBD and TS energies
  Spin treatment: No spin polarisation.
  Found k-point grid:        19        19        16
  Scalar relativistic treatment of kinetic energy: on-site free-atom approximation to ZORA.
  Max energy increase before discarding BFGS move:   0.100000E-01 eV
  Assuming qualitatively harmonic for steps shorter than   0.150000E-01 A.
  S.C.F. convergence parameters will be adjusted in iteration number     3 of each new s.c.f. cycle.
  Geometry relaxation: Modified BFGS - TRM (trust radius method) for lattice optimization.
  Convergence accuracy for geometry relaxation: Maximum force <   0.100000E-01 eV/A.
 
  Reading configuration options for species Pd                  .
  | Found nuclear charge :  46.0000
  | Found atomic mass :    106.420000000000      amu
  | Found l_max for Hartree potential  :   6
  | Found cutoff potl. onset [A], width [A], scale factor :    4.00000    2.00000    1.00000
  | Threshold for basis-dependent cutoff potential is   0.100000E-03
  | Found data for basic radial integration grid :    62 points, outermost radius =    7.000 A
  | Found multiplier for basic radial grid :   2
  | Found angular grid specification: user-specified.
  | Specified grid contains     6 separate shells.
  | Check grid settings after all constraints further below.
  | Found free-atom valence shell :  5 s   1.000
  | Found free-atom valence shell :  4 p   6.000
  | Found free-atom valence shell :  4 d   9.000
  | Found free-ion valence shell :  5 s   0.000
  | Found free-ion valence shell :  4 p   6.000
  | Found free-ion valence shell :  4 d   8.000
  | Found ionic basis function :  5 p , default cutoff radius.
  | Found hydrogenic basis function :  4 f   8.000
  | Found hydrogenic basis function :  5 g  10.000
  | Found hydrogenic basis function :  3 s   2.600
  | Found hydrogenic basis function :  3 d   2.500
  Species Pd                  : Missing cutoff potential type.
  Defaulting to exp(1/x)/(1-x)^2 type cutoff potential.
  Species Pd: No 'logarithmic' tag. Using default grid for free atom:
  | Default logarithmic grid data [bohr] : 0.1000E-03 0.1000E+03 0.1012E+01
  | Will include ionic basis functions of  2.0-fold positive Pd                   ion.
  Species Pd: On-site basis accuracy parameter (for Gram-Schmidt orthonormalisation) not specified.
  Using default value basis_acc =  0.1000000E-03.
  Species Pd                  : Using default innermost maximum threshold i_radial=  2 for radial functions.
  Species Pd                  : Default cutoff onset for free atom density etc. : 0.40000000E+01 AA.
  Species Pd                  : Basic radial grid will be enhanced according to radial_multiplier =   2, to contain   125 grid points.
 
  Reading configuration options for species Se                  .
  | Found nuclear charge :  34.0000
  | Found atomic mass :    78.9600000000000      amu
  | Found l_max for Hartree potential  :   6
  | Found cutoff potl. onset [A], width [A], scale factor :    4.00000    2.00000    1.00000
  | Threshold for basis-dependent cutoff potential is   0.100000E-03
  | Found data for basic radial integration grid :    55 points, outermost radius =    7.000 A
  | Found multiplier for basic radial grid :   2
  | Found angular grid specification: user-specified.
  | Specified grid contains     5 separate shells.
  | Check grid settings after all constraints further below.
  | Found free-atom valence shell :  4 s   2.000
  | Found free-atom valence shell :  4 p   4.000
  | Found free-atom valence shell :  3 d  10.000
  | Found free-ion valence shell :  4 s   1.000
  | Found free-ion valence shell :  4 p   3.000
  | Found free-ion valence shell :  3 d  10.000
  | Found hydrogenic basis function :  3 d   4.300
  | Found hydrogenic basis function :  2 p   1.600
  | Found hydrogenic basis function :  4 f   7.200
  | Found ionic basis function :  4 s , default cutoff radius.
  Species Se                  : Missing cutoff potential type.
  Defaulting to exp(1/x)/(1-x)^2 type cutoff potential.
  Species Se: No 'logarithmic' tag. Using default grid for free atom:
  | Default logarithmic grid data [bohr] : 0.1000E-03 0.1000E+03 0.1012E+01
  | Will include ionic basis functions of  2.0-fold positive Se                   ion.
  Species Se: On-site basis accuracy parameter (for Gram-Schmidt orthonormalisation) not specified.
  Using default value basis_acc =  0.1000000E-03.
  Species Se                  : Using default innermost maximum threshold i_radial=  2 for radial functions.
  Species Se                  : Default cutoff onset for free atom density etc. : 0.40000000E+01 AA.
  Species Se                  : Basic radial grid will be enhanced according to radial_multiplier =   2, to contain   111 grid points.
 
  Finished reading input file 'control.in'. Consistency checks are next.
 
  MPI_IN_PLACE appears to work with this MPI implementation.
  | Keeping use_mpi_in_place .true. (see manual).
  Target number of points in a grid batch is not set. Defaulting to  100
  Method for grid partitioning is not set. Defaulting to parallel hash+maxmin partitioning.
  Batch size limit is not set. Defaulting to    200
  By default, will store active basis functions for each batch.
  If in need of memory, prune_basis_once .false. can be used to disable this option.
  communication_type for Hartree potential was not specified.
  Defaulting to calc_hartree .
  Defaulting to Pulay charge density mixer.
  Pulay mixer: Number of relevant iterations not set.
  Defaulting to    8 iterations.
  Pulay mixer: Number of initial linear mixing iterations not set.
  Defaulting to    0 iterations.
  Work space size for distributed Hartree potential not set.
  Defaulting to   0.200000E+03 MB.
  Mixing parameter for charge density mixing has not been set.
  Using default: charge_mix_param =     0.0500.
  The mixing parameter will be adjusted in iteration number     3 of each s.c.f. cycle (i.e., each geometry step).
  Algorithm-dependent basis array size parameters:
  | n_max_pulay                         :        8
  Maximum number of self-consistency iterations not provided.
  Presetting  1000 iterations.
  Presetting      1001 iterations before the initial mixing cycle
  is restarted anyway using the sc_init_iter criterion / keyword.
  Presetting a factor      1.000 between actual scf density residual
  and density convergence criterion sc_accuracy_rho below which sc_init_iter
  takes no effect.
 * No s.c.f. convergence criteria (sc_accuracy_*) were provided in control.in.
 * The run will proceed with a reasonable default guess, but please check whether.
 * the s.c.f. cycles seem to take too much or too little time.
  No maximum number of relaxation steps, defaulting to     1000
  Using explicit Hessian from geometry.in.
  Maximum energy tolerance by which TRM/BFGS trajectory may increase over multiple steps:   0.300000E-02
  No trust radius initializer. Defaulting to   0.200000E+00 A.
  Unit cell relaxation: Unit cell will be relaxed fully.
  Unit cell relaxation: Analytical stress will be used.
  Analytical stress will be computed.
  Analytical stress calculation: Only the upper triangle is calculated.
                                 Final output is symmetrized.
  Analytical stress calculation: scf convergence accuracy of stress not set.
                                 Analytical stress self-consistency will not be checked explicitly.
                                 Be sure to set other criteria like sc_accuracy_rho tight enough.
 * Notice: The s.c.f. convergence criterion sc_accuracy_rho was not provided.
 * We used to stop in this case, and ask the user to provide reasonable
 * scf convergence criteria. However, this led some users to employ criteria
 * that led to extremely long run times, e.g., for simple relaxation.
 * We now preset a default value for sc_accuracy_rho if it is not set.
 * You may still wish to check if this setting is too tight or too loose for your needs.
 * Based on n_atoms, FHI-aims chose sc_accuracy_rho =  0.141421E-05 .
  Force calculation: scf convergence accuracy of forces not set.
  Defaulting to 'sc_accuracy_forces not_checked'.
  Handling of forces: Unphysical translation and rotation will be removed from forces.
  No accuracy limit for integral partition fn. given. Defaulting to  0.1000E-14.
  No threshold value for u(r) in integrations given. Defaulting to  0.1000E-05.
  No occupation type (smearing scheme) given. Defaulting to Gaussian broadening, width =  0.1000E-01 eV.
  The width will be adjusted in iteration number     3 of each s.c.f. cycle (i.e., each geometry step).
  S.C.F. convergence parameters will be adjusted in iteration number     3 of the first full s.c.f. cycle only.
  No accuracy for occupation numbers given. Defaulting to  0.1000E-12.
  No threshold value for occupation numbers given. Defaulting to  0.0000E+00.
  No accuracy for fermi level given. Defaulting to  0.1000E-19.
  Maximum # of iterations to find E_F not set. Defaulting to  200.
  Preferred method for the eigenvalue solver ('KS_method') not specified in 'control.in'.
  Defaulting to serial version, LAPACK (via ELSI), since more k-points than CPUs available.
  Will not use alltoall communication since running on < 1024 CPUs.
  Threshold for basis singularities not set.
  Default threshold for basis singularities:  0.1000E-04
  partition_type (choice of integration weights) for integrals was not specified.
  | Using a version of the partition function of Stratmann and coworkers ('stratmann_sparse').
  | At each grid point, the set of atoms used to build the partition table is smoothly restricted to
  | only those atoms whose free-atom density would be non-zero at that grid point.
  Partitioning for Hartree potential was not defined. Using partition_type for integrals.
  | Adjusted default value of keyword multip_moments_threshold to:       0.10000000E-11
  | This value may affect high angular momentum components of the Hartree potential in periodic systems.
  Angular momentum expansion for Kerker preconditioner not set explicitly.
  | Using default value of   0
  No explicit requirement for turning off preconditioner.
  | By default, it will be turned off when the charge convergence reaches
  | sc_accuracy_rho  =   0.141421E-05
  No special mixing parameter while Kerker preconditioner is on.
  Using default: charge_mix_param =     0.0500.
  No q(lm)/r^(l+1) cutoff set for long-range Hartree potential.
  | Using default value of  0.100000E-09 .
  | Verify using the multipole_threshold keyword.
  Defaulting to new monopole extrapolation.
  Density update method: automatic selection selected.
  Using density matrix based charge density update.
  Using density matrix based charge density update.
  Using packed matrix style: index .
  Geometry relaxation: A file "geometry.in.next_step" is written out by default after each step.
  | This file contains the geometry of the current relaxation step as well as
  | the current Hessian matrix needed to restart the relaxation algorithm.
  | If you do not want part or all of this information, use the keywords
  | "write_restart_geometry" or "hessian_to_restart_geometry" to switch the output off.
  Defaulting to use time-reversal symmetry for k-point grid.
  Charge integration errors on the 3D integration grid will be compensated
  by explicit normalization and distribution of residual charges.
  Use the "compensate_multipole_errors" flag to change this behaviour.
------------------------------------------------------------


------------------------------------------------------------
          Reading geometry description geometry.in.
------------------------------------------------------------
  Input structure read successfully.
  The structure contains       12 atoms,  and a total of        456.000 electrons.

  Input geometry:
  | Unit cell:
  |        5.85496233        0.00000000        0.00000000
  |        0.00000000        5.95932024        0.00000000
  |        0.00000000        0.00000000        7.43139602
  | Atomic structure:
  |       Atom                x [A]            y [A]            z [A]
  |    1: Species Pd            2.94162277        0.01234205        0.01417212
  |    2: Species Pd            0.01204951        0.01241696        3.73549718
  |    3: Species Pd            0.01256375        2.99421791        0.01453224
  |    4: Species Pd            2.94213637        2.99429103        3.73513453
  |    5: Species Se            3.59660997        0.71553648        3.00469422
  |    6: Species Se            5.21702613        5.27333305        6.72192280
  |    7: Species Se            0.66690855        2.29156703        4.46437118
  |    8: Species Se            2.28708834        3.69723510        0.74493793
  |    9: Species Se            2.28734964        5.27342060        4.46437504
  |   10: Species Se            0.66711207        0.71557694        0.74507704
  |   11: Species Se            5.21685077        3.69719481        3.00471265
  |   12: Species Se            3.59649071        2.29147830        6.72205225

  Lattice parameters for 3D lattice (in Angstroms) :     5.854962    5.959320    7.431396
  Angle(s) between unit vectors (in degrees)       :    90.000000   90.000000   90.000000

  | The smallest distance between any two atoms is         2.40483876 AA.
  | The first atom of this pair is atom number                      6 .
  | The second atom of this pair is atom number                    10 .
  | Wigner-Seitz cell of the first atom image           0     0     0 .
  | (The Wigner-Seitz cell of the second atom is 0 0 0  by definition.)

  Symmetry information by spglib:
  | Precision set to  0.1E-04
  | Number of Operations  : 1
  | Space group           : 1
  | International         : P1
  | Schoenflies           : C1^1

  Quantities derived from the lattice vectors:
  | Reciprocal lattice vector 1:  1.073138  0.000000  0.000000
  | Reciprocal lattice vector 2:  0.000000  1.054346  0.000000
  | Reciprocal lattice vector 3:  0.000000  0.000000  0.845492
  | Unit cell volume                               :   0.259293E+03  A^3

  Range separation radius for Ewald summation (hartree_convergence_parameter):      3.99886961 bohr.

  Fractional coordinates:
                         L1                L2                L3
       atom_frac         0.50241532        0.00207105        0.00190706  Pd
       atom_frac         0.00205800        0.00208362        0.50266426  Pd
       atom_frac         0.00214583        0.50244286        0.00195552  Pd
       atom_frac         0.50250304        0.50245513        0.50261546  Pd
       atom_frac         0.61428405        0.12007015        0.40432433  Se
       atom_frac         0.89104350        0.88488835        0.90453029  Se
       atom_frac         0.11390484        0.38453497        0.60074462  Se
       atom_frac         0.39062392        0.62041222        0.10024199  Se
       atom_frac         0.39066855        0.88490304        0.60074514  Se
       atom_frac         0.11393960        0.12007694        0.10026071  Se
       atom_frac         0.89101355        0.62040546        0.40432681  Se
       atom_frac         0.61426368        0.38452008        0.90454771  Se

  Number of empty states per atom not set in control.in - providing a guess from actual geometry.
  | Total number of empty states used during s.c.f. cycle:       66
  If you use a very high smearing, use empty_states (per atom!) in control.in to increase this value.

  Structure-dependent array size parameters: 
  | Maximum number of distinct radial functions  :       27
  | Maximum number of basis functions            :      468
  | Number of Kohn-Sham states (occupied + empty):      294
------------------------------------------------------------

------------------------------------------------------------
          Preparing all fixed parts of the calculation.
------------------------------------------------------------
  Determining machine precision:
    2.225073858507201E-308
  Setting up grids for atomic and cluster calculations.

  Creating wave function, potential, and density for free atoms.

  Species: Pd

  List of occupied orbitals and eigenvalues:
    n    l              occ      energy [Ha]    energy [eV]
    1    0           2.0000      -913.269104    -24851.3168
    2    0           2.0000      -130.434372     -3549.2998
    3    0           2.0000       -23.521804      -640.0609
    4    0           2.0000        -3.256918       -88.6253
    5    0           1.0000        -0.157260        -4.2793
    2    1           6.0000      -116.910756     -3181.3035
    3    1           6.0000       -19.103344      -519.8284
    4    1           6.0000        -1.998052       -54.3697
    3    2          10.0000       -12.098182      -329.2083
    4    2           9.0000        -0.243389        -6.6230


  Species: Se

  List of occupied orbitals and eigenvalues:
    n    l              occ      energy [Ha]    energy [eV]
    1    0           2.0000      -466.337810    -12689.6975
    2    0           2.0000       -59.202598     -1610.9847
    3    0           2.0000        -7.847116      -213.5309
    4    0           2.0000        -0.634372       -17.2621
    2    1           6.0000       -52.061107     -1416.6548
    3    1           6.0000        -5.620941      -152.9536
    4    1           4.0000        -0.238469        -6.4891
    3    2          10.0000        -1.951949       -53.1152

  Creating fixed part of basis set: Ionic, confined, hydrogenic.
 
  Pd                   ion:

  List of free ionic orbitals and eigenvalues:
    n    l      energy [Ha]    energy [eV]
    1    0      -914.099884    -24873.9234
    2    0      -131.248265     -3571.4470
    3    0       -24.332473      -662.1203
    4    0        -4.059276      -110.4585
    2    1      -117.724296     -3203.4411
    3    1       -19.913908      -541.8850
    4    1        -2.795328       -76.0648
    3    2       -12.908733      -351.2645
    4    2        -1.004248       -27.3270


  List of ionic basis orbitals and eigenvalues:
    n    l      energy [Ha]    energy [eV]    outer radius [A]
    5    1        -0.516938       -14.0666       5.427025

 
  Pd                   hydrogenic:
 
  List of hydrogenic basis orbitals: 
    n    l      effective z      eigenvalue [eV]  inner max. [A]     outer max. [A]     outer radius [A]   
    4    3         8.000000       -54.4226           1.054686           1.054686           4.629581
    5    4        10.000000       -54.4226           1.330451           1.330451           5.043202
    3    0         2.600000        -9.8948           0.150992           2.606197           5.493778
    3    2         2.500000        -9.3396           1.873517           1.873517           5.493778
 
 
  Se                   ion:

  List of free ionic orbitals and eigenvalues:
    n    l      energy [Ha]    energy [eV]
    1    0      -467.261007    -12714.8189
    2    0       -60.104893     -1635.5374
    3    0        -8.743714      -237.9286
    4    0        -1.414053       -38.4783
    2    1       -52.964156     -1441.2280
    3    1        -6.516916      -177.3343
    4    1        -0.961869       -26.1738
    3    2        -2.844511       -77.4031


  List of ionic basis orbitals and eigenvalues:
    n    l      energy [Ha]    energy [eV]    outer radius [A]
    4    0        -1.414046       -38.4782       4.083166

 
  Se                   hydrogenic:
 
  List of hydrogenic basis orbitals: 
    n    l      effective z      eigenvalue [eV]  inner max. [A]     outer max. [A]     outer radius [A]   
    3    2         4.300000       -27.9518           1.103845           1.103845           5.278265
    2    1         1.600000        -8.6828           1.326010           1.326010           5.475439
    4    3         7.200000       -44.0822           1.173422           1.173422           4.965294
 

  Adding cutoff potential to free-atom effective potential.
  Creating atomic-like basis functions for current effective potential.

  Species Pd                  :

  List of atomic basis orbitals and eigenvalues:
    n    l      energy [Ha]    energy [eV]    outer radius [A]
    1    0      -913.269104    -24851.3168       0.223280
    2    0      -130.434372     -3549.2998       0.615909
    3    0       -23.521804      -640.0609       1.414312
    4    0        -3.256918       -88.6253       3.581357
    5    0        -0.157260        -4.2793       5.427025
    2    1      -116.910756     -3181.3035       0.631154
    3    1       -19.103344      -519.8284       1.540671
    4    1        -1.998052       -54.3697       4.408641
    3    2       -12.098182      -329.2083       1.806051
    4    2        -0.243389        -6.6230       5.361084


  Species Se                  :

  List of atomic basis orbitals and eigenvalues:
    n    l      energy [Ha]    energy [eV]    outer radius [A]
    1    0      -466.337810    -12689.6975       0.309561
    2    0       -59.202598     -1610.9847       0.885812
    3    0        -7.847116      -213.5309       2.355489
    4    0        -0.634372       -17.2621       5.214131
    2    1       -52.061107     -1416.6548       0.907737
    3    1        -5.620941      -152.9536       2.694529
    4    1        -0.238469        -6.4891       5.408909
    3    2        -1.951949       -53.1152       4.083166

  Assembling full basis from fixed parts.
  | Species Pd :   atomic orbital   1 s accepted.
  | Species Pd :   atomic orbital   2 s accepted.
  | Species Pd :   atomic orbital   3 s accepted.
  | Species Pd :   atomic orbital   4 s accepted.
  | Species Pd :   atomic orbital   5 s accepted.
  | Species Pd :    hydro orbital   3 s accepted.
  | Species Pd :   atomic orbital   2 p accepted.
  | Species Pd :   atomic orbital   3 p accepted.
  | Species Pd :   atomic orbital   4 p accepted.
  | Species Pd :    ionic orbital   5 p accepted.
  | Species Pd :   atomic orbital   3 d accepted.
  | Species Pd :   atomic orbital   4 d accepted.
  | Species Pd :    hydro orbital   3 d accepted.
  | Species Pd :    hydro orbital   4 f accepted.
  | Species Pd :    hydro orbital   5 g accepted.
  | Species Se :   atomic orbital   1 s accepted.
  | Species Se :   atomic orbital   2 s accepted.
  | Species Se :   atomic orbital   3 s accepted.
  | Species Se :    ionic orbital   4 s accepted.
  | Species Se :   atomic orbital   4 s accepted.
  | Species Se :   atomic orbital   2 p accepted.
  | Species Se :   atomic orbital   3 p accepted.
  | Species Se :   atomic orbital   4 p accepted.
  | Species Se :    hydro orbital   2 p accepted.
  | Species Se :   atomic orbital   3 d accepted.
  | Species Se :    hydro orbital   3 d accepted.
  | Species Se :    hydro orbital   4 f accepted.
 
  Basis size parameters after reduction:
  | Total number of radial functions:       27
  | Total number of basis functions :      468
 
  Per-task memory consumption for arrays in subroutine allocate_ext:
  |           9.993344MB.
  Testing on-site integration grid accuracy.
  |  Species  Function  <phi|h_atom|phi> (log., in eV)  <phi|h_atom|phi> (rad., in eV)
           1        1             -24851.3167505682             -24851.3148165635
           1        2              -3549.2998457785              -3549.2998098031
           1        3               -640.0608571327               -640.0608534886
           1        4                -88.6252603131                -88.6252593316
           1        5                 -4.2849374515                 -4.2849400622
           1        6                  4.9432123540                  4.9432188418
           1        7              -3181.3035399559              -3181.3035364574
           1        8               -519.8284281886               -519.8284264063
           1        9                -54.3697495804                -54.3697489261
           1       10                  0.8628369484                  0.8628370487
           1       11               -329.2082917394               -329.2082912864
           1       12                 -6.6230267036                 -6.6230265076
           1       13                  5.4924295291                  5.4924115607
           1       14                 25.0740861942                 25.0740861175
           1       15                 38.8271273823                 38.8271278029
           2       16             -12689.6974611609             -12689.6967666984
           2       17              -1610.9846578580              -1610.9846472470
           2       18               -213.5308789869               -213.5308777267
           2       19                -17.0464428502                -17.0464426496
           2       20                  6.7356859379                  6.7356842047
           2       21              -1416.6548010133              -1416.6548002108
           2       22               -152.9535734377               -152.9535727493
           2       23                 -6.4896265677                 -6.4896303794
           2       24                  5.2703037283                  5.2701679583
           2       25                -53.1152220964                -53.1152219035
           2       26                  7.6186674138                  7.6186665630
           2       27                 23.1072799052                 23.1072803137

  Preparing densities etc. for the partition functions (integrals / Hartree potential).

  Preparations completed.
  max(cpu_time)          :      0.548 s.
  Wall clock time (cpu1) :      0.585 s.
------------------------------------------------------------

------------------------------------------------------------
          Begin self-consistency loop: Initialization.

          Date     :  20200420, Time     :  204652.162
------------------------------------------------------------

  Initializing index lists of integration centers etc. from given atomic structure:
  Mapping all atomic coordinates to central unit cell.

  Initializing the k-points
  Using symmetry for reducing the k-points
  | k-points reduced from:     5776 to     2889
  | Number of k-points                             :      2889
  The eigenvectors in the calculations are COMPLEX.
  | K-points in task   0:       120
  | K-points in task   1:       121
  | K-points in task   2:       121
  | K-points in task   3:       121
  | K-points in task   4:       121
  | K-points in task   5:       121
  | K-points in task   6:       121
  | K-points in task   7:       121
  | K-points in task   8:       121
  | K-points in task   9:       121
  | K-points in task  10:       120
  | K-points in task  11:       120
  | K-points in task  12:       120
  | K-points in task  13:       120
  | K-points in task  14:       120
  | K-points in task  15:       120
  | K-points in task  16:       120
  | K-points in task  17:       120
  | K-points in task  18:       120
  | K-points in task  19:       120
  | K-points in task  20:       120
  | K-points in task  21:       120
  | K-points in task  22:       120
  | K-points in task  23:       120
  | Number of basis functions in the Hamiltonian integrals :      5560
  | Number of basis functions in a single unit cell        :       468
  | Number of centers in hartree potential         :      1325
  | Number of centers in hartree multipole         :       769
  | Number of centers in electron density summation:       596
  | Number of centers in basis integrals           :       640
  | Number of centers in integrals                 :       236
  | Number of centers in hamiltonian               :       596
  | Consuming       3882 KiB for k_phase.
  | Number of super-cells (origin) [n_cells]                     :         567
  | Number of super-cells (after PM_index) [n_cells]             :          86
  | Number of super-cells in hamiltonian [n_cells_in_hamiltonian]:          86
  | Size of matrix packed + index [n_hamiltonian_matrix_size] :     1293622

  Initializing relaxation algorithms.
  | Estimated reciprocal-space cutoff momentum G_max:         2.42891593 bohr^-1 .
  | Reciprocal lattice points for long-range Hartree potential:     418
  Partitioning the integration grid into batches with parallel hashing+maxmin method.
  | Number of batches:     4180
  | Maximal batch size:     110
  | Minimal batch size:      49
  | Average batch size:      91.899
  | Standard deviation of batch sizes:      11.361

  Integration load balanced across    24 MPI tasks.
  Work distribution over tasks is as follows:
  Task     0 has      15997 integration points.
  Task     1 has      15969 integration points.
  Task     2 has      16021 integration points.
  Task     3 has      16014 integration points.
  Task     4 has      15991 integration points.
  Task     5 has      15969 integration points.
  Task     6 has      16016 integration points.
  Task     7 has      16023 integration points.
  Task     8 has      15995 integration points.
  Task     9 has      15989 integration points.
  Task    10 has      16020 integration points.
  Task    11 has      16040 integration points.
  Task    12 has      15990 integration points.
  Task    13 has      16011 integration points.
  Task    14 has      15969 integration points.
  Task    15 has      16030 integration points.
  Task    16 has      16017 integration points.
  Task    17 has      16039 integration points.
  Task    18 has      16029 integration points.
  Task    19 has      15996 integration points.
  Task    20 has      15973 integration points.
  Task    21 has      16022 integration points.
  Task    22 has      16042 integration points.
  Task    23 has      15974 integration points.
  Initializing partition tables, free-atom densities, potentials, etc. across the integration grid (initialize_grid_storage).
  | initialize_grid_storage: Actual outermost partition radius vs. multipole_radius_free
  | (-- VB: in principle, multipole_radius_free should be larger, hence this output)
  | Species        1: Confinement radius =              6.000000000000000 AA, multipole_radius_free =              6.058219618167466 AA.
  | Species        1: outer_partition_radius set to              6.058219618167466 AA .
  | Species        2: Confinement radius =              6.000000000000000 AA, multipole_radius_free =              6.037996416842453 AA.
  | Species        2: outer_partition_radius set to              6.037996416842453 AA .
  | The sparse table of interatomic distances needs       2897.83 kbyte instead of      3276.80 kbyte of memory.
  | Net number of integration points:   384136
  | of which are non-zero points    :   322121
  | Numerical average free-atom electrostatic potential    :    -17.07887826 eV
  Renormalizing the initial density to the exact electron count on the 3D integration grid.
  | Initial density: Formal number of electrons (from input files) :     456.0000000000
  | Integrated number of electrons on 3D grid     :     456.0000566557
  | Charge integration error                      :       0.0000566557
  | Normalization factor for density and gradient :       0.9999998758
  Renormalizing the free-atom superposition density to the exact electron count on the 3D integration grid.
  | Formal number of electrons (from input files) :     456.0000000000
  | Integrated number of electrons on 3D grid     :     456.0000566557
  | Charge integration error                      :       0.0000566557
  | Normalization factor for density and gradient :       0.9999998758
  Obtaining max. number of non-zero basis functions in each batch (get_n_compute_maxes).
  | Maximal number of non-zero basis functions:     1032 in task     0
  | Maximal number of non-zero basis functions:     1026 in task     1
  | Maximal number of non-zero basis functions:     1011 in task     2
  | Maximal number of non-zero basis functions:     1012 in task     3
  | Maximal number of non-zero basis functions:     1020 in task     4
  | Maximal number of non-zero basis functions:     1024 in task     5
  | Maximal number of non-zero basis functions:     1016 in task     6
  | Maximal number of non-zero basis functions:     1040 in task     7
  | Maximal number of non-zero basis functions:     1034 in task     8
  | Maximal number of non-zero basis functions:     1023 in task     9
  | Maximal number of non-zero basis functions:     1011 in task    10
  | Maximal number of non-zero basis functions:     1023 in task    11
  | Maximal number of non-zero basis functions:     1042 in task    12
  | Maximal number of non-zero basis functions:     1017 in task    13
  | Maximal number of non-zero basis functions:     1035 in task    14
  | Maximal number of non-zero basis functions:     1023 in task    15
  | Maximal number of non-zero basis functions:     1029 in task    16
  | Maximal number of non-zero basis functions:     1020 in task    17
  | Maximal number of non-zero basis functions:     1018 in task    18
  | Maximal number of non-zero basis functions:     1016 in task    19
  | Maximal number of non-zero basis functions:     1029 in task    20
  | Maximal number of non-zero basis functions:     1029 in task    21
  | Maximal number of non-zero basis functions:     1029 in task    22
  | Maximal number of non-zero basis functions:     1002 in task    23
  Allocating      251.938 MB for KS_eigenvector_complex
  Integrating Hamiltonian matrix: batch-based integration.
  Time summed over all CPUs for integration: real work       63.813 s, elapsed       64.435 s
  Integrating overlap matrix.
  Time summed over all CPUs for integration: real work       46.135 s, elapsed       46.698 s
  Decreasing sparse matrix size:
  | Tolerance:  0.1000E-12
  Hamiltonian matrix
  | Array has  1119504 nonzero elements out of  1293622 elements
  | Sparsity factor is 0.135
  Overlap matrix
  | Array has  1033191 nonzero elements out of  1293622 elements
  | Sparsity factor is 0.201
  New size of hamiltonian matrix:     1119576

  Updating Kohn-Sham eigenvalues and eigenvectors using ELSI and the (modified) LAPACK eigensolver.
  Singularity check in k-point 24, task 0 (analysis for other k-points/tasks may follow below):
  Overlap matrix is not singular
  | Lowest and highest eigenvalues :  0.5758E-03,  0.7275E+01
  Finished singularity check of overlap matrix
  | Time :     0.078 s
  Starting LAPACK eigensolver
  Finished Cholesky decomposition
  | Time :     0.018 s
  Finished transformation to standard eigenproblem
  | Time :     0.021 s
  Finished solving standard eigenproblem
  | Time :     0.071 s
  Finished back-transformation of eigenvectors
  | Time :     0.009 s

  Obtaining occupation numbers and chemical potential using ELSI.
  | Chemical potential (Fermi level):    -4.63799562 eV
  Writing Kohn-Sham eigenvalues.
  K-point:       1 at    0.000000    0.000000    0.000000 (in units of recip. lattice)

  State    Occupation    Eigenvalue [Ha]    Eigenvalue [eV]
      1       2.00000        -913.279498       -24851.59957
      2       2.00000        -913.279487       -24851.59927
      3       2.00000        -913.279487       -24851.59927
      4       2.00000        -913.279411       -24851.59720
      5       2.00000        -466.350323       -12690.03794
      6       2.00000        -466.350286       -12690.03694
      7       2.00000        -466.350248       -12690.03590
      8       2.00000        -466.350244       -12690.03580
      9       2.00000        -466.350244       -12690.03579
     10       2.00000        -466.350230       -12690.03543
     11       2.00000        -466.350218       -12690.03509
     12       2.00000        -466.350199       -12690.03457
     13       2.00000        -130.445082        -3549.59129
     14       2.00000        -130.445071        -3549.59098
     15       2.00000        -130.445071        -3549.59098
     16       2.00000        -130.444994        -3549.58889
     17       2.00000        -116.921490        -3181.59563
     18       2.00000        -116.921481        -3181.59539
     19       2.00000        -116.921479        -3181.59532
     20       2.00000        -116.921479        -3181.59531
     21       2.00000        -116.921470        -3181.59508
     22       2.00000        -116.921470        -3181.59508
     23       2.00000        -116.921428        -3181.59392
     24       2.00000        -116.921416        -3181.59362
     25       2.00000        -116.921416        -3181.59362
     26       2.00000        -116.921402        -3181.59323
     27       2.00000        -116.921394        -3181.59300
     28       2.00000        -116.921340        -3181.59155
     29       2.00000         -59.215537        -1611.33674
     30       2.00000         -59.215499        -1611.33572
     31       2.00000         -59.215460        -1611.33466
     32       2.00000         -59.215457        -1611.33457
     33       2.00000         -59.215456        -1611.33455
     34       2.00000         -59.215443        -1611.33418
     35       2.00000         -59.215430        -1611.33384
     36       2.00000         -59.215411        -1611.33331
     37       2.00000         -52.074052        -1417.00706
     38       2.00000         -52.074028        -1417.00641
     39       2.00000         -52.074016        -1417.00606
     40       2.00000         -52.073990        -1417.00537
     41       2.00000         -52.073980        -1417.00508
     42       2.00000         -52.073977        -1417.00501
     43       2.00000         -52.073973        -1417.00489
     44       2.00000         -52.073973        -1417.00489
     45       2.00000         -52.073959        -1417.00452
     46       2.00000         -52.073951        -1417.00431
     47       2.00000         -52.073949        -1417.00425
     48       2.00000         -52.073947        -1417.00421
     49       2.00000         -52.073946        -1417.00417
     50       2.00000         -52.073942        -1417.00406
     51       2.00000         -52.073934        -1417.00384
     52       2.00000         -52.073927        -1417.00365
     53       2.00000         -52.073922        -1417.00350
     54       2.00000         -52.073904        -1417.00303
     55       2.00000         -52.073902        -1417.00297
     56       2.00000         -52.073900        -1417.00293
     57       2.00000         -52.073900        -1417.00291
     58       2.00000         -52.073887        -1417.00255
     59       2.00000         -52.073874        -1417.00222
     60       2.00000         -52.073855        -1417.00169
     61       2.00000         -23.533276         -640.37302
     62       2.00000         -23.533264         -640.37270
     63       2.00000         -23.533264         -640.37270
     64       2.00000         -23.533182         -640.37048
     65       2.00000         -19.115070         -520.14753
     66       2.00000         -19.115058         -520.14720
     67       2.00000         -19.115056         -520.14715
     68       2.00000         -19.114983         -520.14514
     69       2.00000         -19.114974         -520.14492
     70       2.00000         -19.114972         -520.14484
     71       2.00000         -19.114970         -520.14479
     72       2.00000         -19.114888         -520.14256
     73       2.00000         -19.114450         -520.13065
     74       2.00000         -19.114439         -520.13035
     75       2.00000         -19.114439         -520.13034
     76       2.00000         -19.114360         -520.12819
     77       2.00000         -12.109877         -329.52652
     78       2.00000         -12.109865         -329.52618
     79       2.00000         -12.109864         -329.52618
     80       2.00000         -12.109842         -329.52556
     81       2.00000         -12.109829         -329.52522
     82       2.00000         -12.109829         -329.52521
     83       2.00000         -12.109781         -329.52392
     84       2.00000         -12.109746         -329.52296
     85       2.00000         -12.109498         -329.51621
     86       2.00000         -12.109487         -329.51591
     87       2.00000         -12.109486         -329.51587
     88       2.00000         -12.109442         -329.51469
     89       2.00000         -12.109431         -329.51439
     90       2.00000         -12.109430         -329.51436
     91       2.00000         -12.109406         -329.51370
     92       2.00000         -12.109360         -329.51244
     93       2.00000         -12.109350         -329.51219
     94       2.00000         -12.109348         -329.51213
     95       2.00000         -12.109348         -329.51213
     96       2.00000         -12.109269         -329.50996
     97       2.00000          -7.861848         -213.93177
     98       2.00000          -7.861804         -213.93056
     99       2.00000          -7.861760         -213.92937
    100       2.00000          -7.861759         -213.92936
    101       2.00000          -7.861756         -213.92925
    102       2.00000          -7.861741         -213.92885
    103       2.00000          -7.861726         -213.92845
    104       2.00000          -7.861705         -213.92788
    105       2.00000          -5.636253         -153.37024
    106       2.00000          -5.636216         -153.36925
    107       2.00000          -5.636171         -153.36801
    108       2.00000          -5.636165         -153.36786
    109       2.00000          -5.636159         -153.36770
    110       2.00000          -5.636148         -153.36738
    111       2.00000          -5.636129         -153.36686
    112       2.00000          -5.636109         -153.36633
    113       2.00000          -5.636006         -153.36352
    114       2.00000          -5.635956         -153.36216
    115       2.00000          -5.635905         -153.36078
    116       2.00000          -5.635901         -153.36068
    117       2.00000          -5.635892         -153.36042
    118       2.00000          -5.635870         -153.35983
    119       2.00000          -5.635831         -153.35875
    120       2.00000          -5.635819         -153.35845
    121       2.00000          -5.635340         -153.34541
    122       2.00000          -5.635296         -153.34420
    123       2.00000          -5.635259         -153.34320
    124       2.00000          -5.635254         -153.34307
    125       2.00000          -5.635252         -153.34301
    126       2.00000          -5.635239         -153.34266
    127       2.00000          -5.635229         -153.34237
    128       2.00000          -5.635207         -153.34178
    129       2.00000          -3.273931          -89.08820
    130       2.00000          -3.273915          -89.08775
    131       2.00000          -3.273913          -89.08770
    132       2.00000          -3.273795          -89.08448
    133       2.00000          -2.020219          -54.97295
    134       2.00000          -2.020206          -54.97259
    135       2.00000          -2.020169          -54.97159
    136       2.00000          -2.020034          -54.96791
    137       2.00000          -2.019211          -54.94554
    138       2.00000          -2.019209          -54.94548
    139       2.00000          -2.019164          -54.94426
    140       2.00000          -2.019033          -54.94069
    141       2.00000          -2.013030          -54.77733
    142       2.00000          -2.013022          -54.77713
    143       2.00000          -2.013019          -54.77704
    144       2.00000          -2.012915          -54.77420
    145       2.00000          -1.969259          -53.58626
    146       2.00000          -1.969190          -53.58440
    147       2.00000          -1.969150          -53.58329
    148       2.00000          -1.969123          -53.58257
    149       2.00000          -1.968200          -53.55743
    150       2.00000          -1.968156          -53.55624
    151       2.00000          -1.968112          -53.55507
    152       2.00000          -1.968093          -53.55453
    153       2.00000          -1.967761          -53.54550
    154       2.00000          -1.967740          -53.54492
    155       2.00000          -1.967697          -53.54376
    156       2.00000          -1.967682          -53.54335
    157       2.00000          -1.967628          -53.54189
    158       2.00000          -1.967599          -53.54111
    159       2.00000          -1.967553          -53.53983
    160       2.00000          -1.967543          -53.53957
    161       2.00000          -1.967342          -53.53410
    162       2.00000          -1.967309          -53.53320
    163       2.00000          -1.967298          -53.53290
    164       2.00000          -1.967280          -53.53240
    165       2.00000          -1.967261          -53.53189
    166       2.00000          -1.967254          -53.53170
    167       2.00000          -1.967229          -53.53101
    168       2.00000          -1.967228          -53.53100
    169       2.00000          -1.967206          -53.53041
    170       2.00000          -1.967202          -53.53030
    171       2.00000          -1.967189          -53.52995
    172       2.00000          -1.967180          -53.52968
    173       2.00000          -1.967157          -53.52907
    174       2.00000          -1.967150          -53.52888
    175       2.00000          -1.967144          -53.52871
    176       2.00000          -1.967128          -53.52828
    177       2.00000          -1.966676          -53.51598
    178       2.00000          -1.966648          -53.51522
    179       2.00000          -1.966612          -53.51424
    180       2.00000          -1.966601          -53.51394
    181       2.00000          -1.966323          -53.50637
    182       2.00000          -1.966302          -53.50579
    183       2.00000          -1.966261          -53.50469
    184       2.00000          -1.966256          -53.50455
    185       2.00000          -0.759461          -20.66597
    186       2.00000          -0.740450          -20.14868
    187       2.00000          -0.720369          -19.60224
    188       2.00000          -0.718705          -19.55696
    189       2.00000          -0.652671          -17.76008
    190       2.00000          -0.640743          -17.43549
    191       2.00000          -0.639416          -17.39940
    192       2.00000          -0.627525          -17.07583
    193       2.00000          -0.418356          -11.38404
    194       2.00000          -0.410571          -11.17221
    195       2.00000          -0.389511          -10.59912
    196       2.00000          -0.376403          -10.24245
    197       2.00000          -0.370706          -10.08743
    198       2.00000          -0.369253          -10.04790
    199       2.00000          -0.366426           -9.97097
    200       2.00000          -0.366077           -9.96146
    201       2.00000          -0.364564           -9.92028
    202       2.00000          -0.362841           -9.87341
    203       2.00000          -0.361329           -9.83225
    204       2.00000          -0.351692           -9.57001
    205       2.00000          -0.342020           -9.30683
    206       2.00000          -0.330909           -9.00448
    207       2.00000          -0.324688           -8.83522
    208       2.00000          -0.316713           -8.61821
    209       2.00000          -0.316479           -8.61183
    210       2.00000          -0.306010           -8.32696
    211       2.00000          -0.288622           -7.85380
    212       2.00000          -0.286400           -7.79334
    213       2.00000          -0.285115           -7.75837
    214       2.00000          -0.280013           -7.61953
    215       2.00000          -0.279148           -7.59599
    216       2.00000          -0.277228           -7.54377
    217       2.00000          -0.276168           -7.51490
    218       2.00000          -0.275574           -7.49875
    219       2.00000          -0.273693           -7.44756
    220       2.00000          -0.270314           -7.35562
    221       2.00000          -0.265431           -7.22275
    222       2.00000          -0.263826           -7.17906
    223       2.00000          -0.263453           -7.16893
    224       2.00000          -0.257908           -7.01804
    225       2.00000          -0.224138           -6.09911
    226       2.00000          -0.215120           -5.85371
    227       2.00000          -0.212892           -5.79308
    228       0.00000          -0.164318           -4.47133
    229       0.00000          -0.152656           -4.15398
    230       0.00000          -0.135197           -3.67890
    231       0.00000          -0.129885           -3.53434
    232       0.00000          -0.128538           -3.49770
    233       0.00000          -0.125822           -3.42379
    234       0.00000          -0.115552           -3.14433
    235       0.00000          -0.114962           -3.12829
    236       0.00000          -0.082129           -2.23485
    237       0.00000          -0.037350           -1.01635
    238       0.00000          -0.030118           -0.81956
    239       0.00000          -0.002391           -0.06507
    240       0.00000           0.022240            0.60518
    241       0.00000           0.025850            0.70340
    242       0.00000           0.027386            0.74522
    243       0.00000           0.057649            1.56872
    244       0.00000           0.089398            2.43264
    245       0.00000           0.102118            2.77877
    246       0.00000           0.111458            3.03293
    247       0.00000           0.118618            3.22776
    248       0.00000           0.122844            3.34275
    249       0.00000           0.124965            3.40047
    250       0.00000           0.125578            3.41716
    251       0.00000           0.137652            3.74571
    252       0.00000           0.151809            4.13093
    253       0.00000           0.160076            4.35588
    254       0.00000           0.170841            4.64883
    255       0.00000           0.176844            4.81217
    256       0.00000           0.189519            5.15708
    257       0.00000           0.191963            5.22357
    258       0.00000           0.198828            5.41038
    259       0.00000           0.220185            5.99155
    260       0.00000           0.231439            6.29779
    261       0.00000           0.247575            6.73685
    262       0.00000           0.257880            7.01728
    263       0.00000           0.267252            7.27229
    264       0.00000           0.280272            7.62658
    265       0.00000           0.281168            7.65097
[...]
  |                x                y                z                |
  |                                                                   |
  |  x        -0.00017601       0.00000365       0.00002797           |
  |  y         0.00000365       0.00015823       0.00001044           |
  |  z         0.00002797       0.00001044      -0.00002152           |
  |                                                                   |
  |  Pressure:       0.00001310   [eV/A**3]                           |
  |                                                                   |
  +-------------------------------------------------------------------+

 * Warning: Stress tensor is anisotropic. Be aware that pressure is an isotropic quantity.


  Leaving Libmbd.

  Timings for VdW correction (Tkatchenko-Scheffler 2009 or later):
  | CPU time:       26.187 s, Wall clock time:       26.190 s.
  Removing unitary transformations (pure translations, rotations) from forces on atoms.
  Atomic forces before filtering:
  | Net force on center of mass :  -0.854779E-05 -0.655414E-05 -0.181983E-04 eV/A
  Atomic forces after filtering:
  | Net force on center of mass :   0.696899E-18 -0.696899E-18  0.000000E+00 eV/A

  Energy and forces in a compact form:
  | Total energy uncorrected      :         -0.108791111516001E+07 eV
  | Total energy corrected        :         -0.108791111627631E+07 eV  <-- do not rely on this value for anything but (periodic) metals
  | Electronic free energy        :         -0.108791111739260E+07 eV
  Total atomic forces (unitary forces cleaned) [eV/Ang]:
  |    1          0.104482139734651E-03         -0.333719919831589E-02          0.245956604535083E-02
  |    2          0.114537427743460E-02          0.339659661457311E-03         -0.147452358535516E-02
  |    3         -0.227072074534145E-02         -0.228836475940906E-02          0.200578777432199E-02
  |    4          0.422935864655890E-03         -0.228491421232684E-03         -0.145319960383017E-02
  |    5          0.720336860066511E-03         -0.466390128007087E-03         -0.235602247307661E-03
  |    6          0.208191332617205E-02          0.384331986535266E-02         -0.527324883171893E-03
  |    7         -0.120496382003045E-02          0.102924708464797E-02         -0.101602305669206E-04
  |    8         -0.281066253080802E-02          0.418772654710452E-03          0.115831734190088E-02
  |    9         -0.184905946490898E-02         -0.109590870592059E-03          0.462109720887971E-04
  |   10          0.281648240434512E-03         -0.495794888483093E-03         -0.738307420678850E-03
  |   11          0.585907862273322E-03         -0.642509382260523E-03          0.497027488822794E-03
  |   12          0.279280799031737E-02          0.193734138213201E-02         -0.172779165157464E-02

  ------------------------------------ 
  Start decomposition of the XC Energy 
  ------------------------------------ 
  X and C from original XC functional choice 
  Hartree-Fock Energy :          0.000000000 Ha              0.000000000 eV
  X Energy            :      -1261.088073893 Ha         -34315.952467076 eV
  C Energy            :        -23.237216226 Ha           -632.316825423 eV
  Total XC Energy     :      -1284.325290119 Ha         -34948.269292499 eV
  ------------------------------------ 
  LDA X and C from self-consistent density 
  X Energy LDA        :      -1197.518391034 Ha         -32586.133384244 eV
  C Energy LDA        :        -42.068279683 Ha          -1144.736133710 eV
  ------------------------------------ 
  End decomposition of the XC Energy 
  ------------------------------------ 

------------------------------------------------------------
  Relaxation / MD: End force evaluation.       :  max(cpu_time)    wall_clock(cpu1)
  | Time for this force evaluation             :      624.809 s         625.248 s

------------------------------------------------------------
  Geometry optimization: Attempting to predict improved coordinates.

  +-------------------------------------------------------------------+
  | Generalized derivatives on lattice vectors [eV/A]                 |
  +-------------------------------------------------------------------+
  |lattice_vector      -0.00786544       0.00016330       0.00124997  |
  |lattice_vector       0.00016031       0.00694115       0.00045810  |
  |lattice_vector       0.00097369       0.00036351      -0.00074908  |
  +-------------------------------------------------------------------+
  | Forces on lattice vectors cleaned from atomic contributions [eV/A]|
  +-------------------------------------------------------------------+
  |lattice_vector       0.00786544      -0.00016330      -0.00124997  |
  |lattice_vector      -0.00016031      -0.00694115      -0.00045810  |
  |lattice_vector      -0.00097369      -0.00036351       0.00074908  |
  +-------------------------------------------------------------------+
  Symmetrized total atomic cartesian forces [eV/Ang]:
  |   1     0.1044821397E-03    -0.3337199198E-02     0.2459566045E-02
  |   2     0.1145374277E-02     0.3396596615E-03    -0.1474523585E-02
  |   3    -0.2270720745E-02    -0.2288364759E-02     0.2005787774E-02
  |   4     0.4229358647E-03    -0.2284914212E-03    -0.1453199604E-02
  |   5     0.7203368601E-03    -0.4663901280E-03    -0.2356022473E-03
  |   6     0.2081913326E-02     0.3843319865E-02    -0.5273248832E-03
  |   7    -0.1204963820E-02     0.1029247085E-02    -0.1016023057E-04
  |   8    -0.2810662531E-02     0.4187726547E-03     0.1158317342E-02
  |   9    -0.1849059465E-02    -0.1095908706E-03     0.4621097209E-04
  |  10     0.2816482404E-03    -0.4957948885E-03    -0.7383074207E-03
  |  11     0.5859078623E-03    -0.6425093823E-03     0.4970274888E-03
  |  12     0.2792807990E-02     0.1937341382E-02    -0.1727791652E-02
  +-------------------------------------------------------------------+
  | Symmetrized forces on lattice vectors cleaned from symmetrized
  | atomic contributions [eV/A]|
  +-------------------------------------------------------------------+
  |lattice_vector       0.00786544       0.00000000       0.00000000  |
  |lattice_vector       0.00000000      -0.00694115       0.00000000  |
  |lattice_vector       0.00000000       0.00000000       0.00074908  |
  +-------------------------------------------------------------------+
  Removing unitary transformations (pure translations, rotations) from forces on atoms.
  Atomic forces before filtering:
  | Net force on center of mass :   0.104535E-17  0.000000E+00  0.000000E+00 eV/A
  Atomic forces after filtering:
  | Net force on center of mass :  -0.348449E-18  0.000000E+00  0.000000E+00 eV/A
  Net remaining forces (excluding translations, rotations) in present geometry:
  || Forces on atoms   || =   0.384332E-02 eV/A.
  || Forces on lattice || =   0.786544E-02 eV/A^3.
  Maximum force component is  0.786544E-02 eV/A.
  Present geometry is converged.

  Symmetry-reduced parameters:
  | atomic   1          0.502324539497331E+00
  | atomic   2          0.241678714851846E-02
  | atomic   3          0.216408021564089E-02
  | atomic   4          0.233843003737344E-02
  | atomic   5          0.236834903984454E-02
  | atomic   6          0.502645587853946E+00
  | atomic   7          0.250974765224523E-02
  | atomic   8          0.502385794252237E+00
  | atomic   9          0.217031856007964E-02
  | atomic  10          0.502449608586656E+00
  | atomic  11          0.502390124194885E+00
  | atomic  12          0.502625107281123E+00
  | atomic  13          0.614522895644671E+00
  | atomic  14          0.120770231932768E+00
  | atomic  15          0.405654641625422E+00
  | atomic  16          0.890248066909384E+00
  | atomic  17          0.884021600283058E+00
  | atomic  18          0.905492477257214E+00
  | atomic  19          0.114522314334168E+00
  | atomic  20          0.384070581464946E+00
  | atomic  21          0.599329775266711E+00
  | atomic  22          0.390344283785744E+00
  | atomic  23          0.620768872848172E+00
  | atomic  24          0.991437228937028E-01
  | atomic  25          0.390330948886420E+00
  | atomic  26          0.884100183210989E+00
  | atomic  27          0.599339409005541E+00
  | atomic  28          0.114497274292799E+00
  | atomic  29          0.120749364468400E+00
  | atomic  30          0.991506980469468E-01
  | atomic  31          0.890273006295200E+00
  | atomic  32          0.620756026750325E+00
  | atomic  33          0.405656099503581E+00
  | atomic  34          0.614502769972753E+00
  | atomic  35          0.384065960287263E+00
  | atomic  36          0.905491988110622E+00
  | lattice  1          0.584557783166251E+01
  | lattice  2          0.595482367952507E+01
  | lattice  3          0.750425249142869E+01
  Symmetry-reduced forces:
  | atomic   1          0.610758479837538E-03
  | atomic   2         -0.198724328094235E-01
  | atomic   3          0.184572046236574E-01
  | atomic   4          0.669537448512818E-02
  | atomic   5          0.202261339502546E-02
  | atomic   6         -0.110651972890718E-01
  | atomic   7         -0.132736748508642E-01
  | atomic   8         -0.136268086567198E-01
  | atomic   9          0.150519379027330E-01
  | atomic  10          0.247230451464748E-02
  | atomic  11         -0.136062612572472E-02
  | atomic  12         -0.109051767475857E-01
  | atomic  13          0.421078518053417E-02
  | atomic  14         -0.277727097815333E-02
  | atomic  15         -0.176801875134471E-02
  | atomic  16          0.121699863869141E-01
  | atomic  17          0.228862921421911E-01
  | atomic  18         -0.395717906833502E-02
  | atomic  19         -0.704370979432539E-02
  | atomic  20          0.612898491174385E-02
  | atomic  21         -0.762449355453037E-04
  | atomic  22         -0.164299465823758E-01
  | atomic  23          0.249371732060737E-02
  | atomic  24          0.869230579882477E-02
  | atomic  25         -0.108088210174977E-01
  | atomic  26         -0.652594311261361E-03
  | atomic  27          0.346778802428697E-03
  | atomic  28          0.164639671061073E-02
  | atomic  29         -0.295237114212661E-02
  | atomic  30         -0.554044530106955E-02
  | atomic  31          0.342497001110170E-02
  | atomic  32         -0.382603008380199E-02
  | atomic  33          0.372981977130700E-02
  | atomic  34          0.163255764762891E-01
  | atomic  35          0.115365263376435E-01
  | atomic  36         -0.129657848059987E-01
  | lattice  1          0.786543655145352E-02
  | lattice  2         -0.694115216616388E-02
  | lattice  3          0.749076527345945E-03
------------------------------------------------------------
  Final atomic structure:
                         x [A]             y [A]             z [A]
  lattice_vector         5.84557783        0.00000000        0.00000000
  lattice_vector         0.00000000        5.95482368        0.00000000
  lattice_vector         0.00000000        0.00000000        7.50425249

            atom        -2.90920064        0.01439154        0.01623980  Pd
            atom         0.01366947        0.01410310       -3.73227309  Pd
            atom         0.01467093       -2.96320486        0.01628662  Pd
            atom        -2.90846954       -2.96317907       -3.73242678  Pd
            atom        -2.25333642        0.71916544        3.04413486  Se
            atom        -0.64156347       -0.69063092       -0.70920831  Se
            atom         0.66944910        2.28707259       -3.00673053  Se
            atom         2.28178789       -2.25825450        0.74399953  Se
            atom         2.28170994       -0.69016297       -3.00665824  Se
            atom         0.66930273        0.71904117        0.74405187  Se
            atom        -0.64141768       -2.25833099        3.04414580  Se
            atom        -2.25345406        2.28704507       -0.70921198  Se

  Fractional coordinates:
                         L1                L2                L3
       atom_frac        -0.49767546        0.00241679        0.00216408  Pd
       atom_frac         0.00233843        0.00236835       -0.49735441  Pd
       atom_frac         0.00250975       -0.49761421        0.00217032  Pd
       atom_frac        -0.49755039       -0.49760988       -0.49737489  Pd
       atom_frac        -0.38547710        0.12077023        0.40565464  Se
       atom_frac        -0.10975193       -0.11597840       -0.09450752  Se
       atom_frac         0.11452231        0.38407058       -0.40067022  Se
       atom_frac         0.39034428       -0.37923113        0.09914372  Se
       atom_frac         0.39033095       -0.11589982       -0.40066059  Se
       atom_frac         0.11449727        0.12074936        0.09915070  Se
       atom_frac        -0.10972699       -0.37924397        0.40565610  Se
       atom_frac        -0.38549723        0.38406596       -0.09450801  Se
------------------------------------------------------------

------------------------------------------------------------------------------
  Final output of selected total energy values:

  The following output summarizes some interesting total energy values
  at the end of a run (AFTER all relaxation, molecular dynamics, etc.).

  | Total energy of the DFT / Hartree-Fock s.c.f. calculation      :       -1087911.115160010 eV
  | Final zero-broadening corrected energy (caution - metals only) :       -1087911.116276306 eV
  | For reference only, the value of 1 Hartree used in FHI-aims is :             27.211384500 eV
  | For reference only, the overall average (free atom contribution
  | + realspace contribution) of the electrostatic potential after
  | s.c.f. convergence is                                          :            -16.962246522 eV

  Before relying on these values, please be sure to understand exactly which
  total energy value is referred to by a given number. Different objects may
  all carry the same name 'total energy'. Definitions:

  Total energy of the DFT / Hartree-Fock s.c.f. calculation:
  | Note that this energy does not include ANY quantities calculated after the
  | s.c.f. cycle, in particular not ANY RPA, MP2, etc. many-body perturbation terms.

  Final zero-broadening corrected energy:
  | For metallic systems only, a broadening of the occupation numbers at the Fermi
  | level can be extrapolated back to zero broadening by an electron-gas inspired
  | formula. For all systems that are not real metals, this value can be
  | meaningless and should be avoided.

------------------------------------------------------------------------------
  Methods described in the following list of references were used in this FHI-aims run.
  If you publish the results, please make sure to cite these reference if they apply.
  FHI-aims is an academic code, and for our developers (often, Ph.D. students
  and postdocs), scientific credit in the community is essential.
  Thank you for helping us!

  For any use of FHI-aims, please cite:

    Volker Blum, Ralf Gehrke, Felix Hanke, Paula Havu, Ville Havu,
    Xinguo Ren, Karsten Reuter, and Matthias Scheffler
    'Ab initio molecular simulations with numeric atom-centered orbitals'
    Computer Physics Communications 180, 2175-2196 (2009)
    http://dx.doi.org/10.1016/j.cpc.2009.06.022


  For the analytical stress tensor used in your run, please cite:

    Franz Knuth, Christian Carbogno, Viktor Atalla, Volker Blum, Matthias Scheffler
    'All-electron formalism for total energy strain derivatives and
    stress tensor components for numeric atom-centered orbitals'
    Computer Physics Communications 190, 33-50 (2015).
    http://dx.doi.org/10.1016/j.cpc.2015.01.003


  The provided symmetry information was generated with SPGlib:

    Atsushi Togo, Yusuke Seto, Dimitar Pashov
    SPGlib 1.7.3 obtained from http://spglib.sourceforge.net
    Copyright (C) 2008 Atsushi Togo


  The ELSI infrastructure was used in your run to solve the Kohn-Sham electronic structure.
  Please check out http://elsi-interchange.org to learn more.
  If scalability is important for your project, please acknowledge ELSI by citing:

    V. W-z. Yu, F. Corsetti, A. Garcia, W. P. Huhn, M. Jacquelin, W. Jia,
    B. Lange, L. Lin, J. Lu, W. Mi, A. Seifitokaldani, A. Vazquez-Mayagoitia,
    C. Yang, H. Yang, and V. Blum
    'ELSI: A unified software interface for Kohn-Sham electronic structure solvers'
    Computer Physics Communications 222, 267-285 (2018).
    http://dx.doi.org/10.1016/j.cpc.2017.09.007


  For the real-space grid partitioning and parallelization used in this calculation, please cite:

    Ville Havu, Volker Blum, Paula Havu, and Matthias Scheffler,
    'Efficient O(N) integration for all-electron electronic structure calculation'
    'using numerically tabulated basis functions'
    Journal of Computational Physics 228, 8367-8379 (2009).
    http://dx.doi.org/10.1016/j.jcp.2009.08.008

  Of course, there are many other important community references, e.g., those cited in the
  above references. Our list is limited to references that describe implementations in the
  FHI-aims code. The reason is purely practical (length of this list) - please credit others as well.

------------------------------------------------------------
          Leaving FHI-aims.
          Date     :  20200420, Time     :  215422.024

          Computational steps:
          | Number of self-consistency cycles          :          105
          | Number of SCF (re)initializations          :            5
          | Number of relaxation steps                 :            4

          Detailed time accounting                     :  max(cpu_time)    wall_clock(cpu1)
          | Total time                                 :     4048.591 s        4050.800 s
          | Preparation time                           :        0.548 s           0.585 s
          | Boundary condition initalization           :        0.749 s           0.750 s
          | Grid partitioning                          :        1.757 s           1.757 s
          | Preloading free-atom quantities on grid    :        4.604 s           4.605 s
          | Free-atom superposition energy             :        0.713 s           0.713 s
          | Total time for integrations                :      295.583 s         295.590 s
          | Total time for solution of K.-S. equations :     1851.770 s        1852.853 s
          | Total time for EV reorthonormalization     :       22.915 s          22.662 s
          | Total time for density & force components  :     1420.848 s        1420.961 s
          | Total time for mixing & preconditioning    :       74.644 s          74.687 s
          | Total time for Hartree multipole update    :        0.455 s           0.465 s
          | Total time for Hartree multipole sum       :      236.426 s         236.446 s
          | Total time for total energy evaluation     :        2.725 s           2.759 s
          | Total time for scaled ZORA corrections     :        0.000 s           0.000 s
          | Total time for vdW correction              :      131.401 s         131.429 s

          Partial memory accounting:
          | Residual value for overall tracked memory usage across tasks:     0.000000 MB (should be 0.000000 MB)
          | Peak values for overall tracked memory usage:
          |   Minimum:      550.433 MB (on task 17 after allocating d_wave)
          |   Maximum:      555.881 MB (on task  1 after allocating d_wave)
          |   Average:      552.598 MB
          | Largest tracked array allocation:
          |   Minimum:      251.938 MB (KS_eigenvector_complex on task  0)
          |   Maximum:      254.038 MB (KS_eigenvector_complex on task  1)
          |   Average:      252.726 MB
          Note:  These values currently only include a subset of arrays which are explicitly tracked.
          The "true" memory usage will be greater.

          Have a nice day.
------------------------------------------------------------
