------------------------------------------------------------
          Invoking FHI-aims ...

          When using FHI-aims, please cite the following reference:

          Volker Blum, Ralf Gehrke, Felix Hanke, Paula Havu,
          Ville Havu, Xinguo Ren, Karsten Reuter, and Matthias Scheffler,
          'Ab Initio Molecular Simulations with Numeric Atom-Centered Orbitals',
          Computer Physics Communications 180, 2175-2196 (2009)

          For any questions about FHI-aims, please visit the aimsclub website
          with its forums and wiki. Contributions to both the forums and the
          wiki are warmly encouraged - they are for you, and everyone is welcome there.

------------------------------------------------------------



  Date     :  20200420, Time     :  204649.871
  Time zero on CPU 1             :   0.117532000000000E+00  s.
  Internal wall clock time zero  :           356647609.871  s.

  FHI-aims created a unique identifier for this run for later identification
  aims_uuid : DD5E533F-4F26-44C5-A873-FF52B6DC259C

  Build configuration of the current instance of FHI-aims
  -------------------------------------------------------
  FHI-aims version      : 200112
  Commit number         : 23daeca3f
  CMake host system     : Linux-3.10.0-693.21.1.el7.x86_64
  CMake version         : 3.13.3
  Fortran compiler      : /sw/installed/impi/2018.4.274-iccifort-2019.1.144-GCC-8.2.0-2.31.1/bin64/mpiifort (Intel) version 19.0.0.20181018
  Fortran compiler flags: -O3 -ip -fp-model precise
  C compiler            : /sw/installed/impi/2018.4.274-iccifort-2019.1.144-GCC-8.2.0-2.31.1/bin64/mpiicc (Intel) version 19.0.0.20181018
  C compiler flags      : -O3 -ip -fp-model precise
  Architecture          :
  Using MPI
  Using Scalapack
  Using C files
  Using LibXC
  Using SPGlib
  Using i-PI
  Using RLSY
  Linking against: /sw/installed/imkl/2019.1.144-iimpi-2019a/mkl/lib/intel64/libmkl_intel_lp64.so
                   /sw/installed/imkl/2019.1.144-iimpi-2019a/mkl/lib/intel64/libmkl_sequential.so
                   /sw/installed/imkl/2019.1.144-iimpi-2019a/mkl/lib/intel64/libmkl_core.so
                   /sw/installed/imkl/2019.1.144-iimpi-2019a/mkl/lib/intel64/libmkl_blacs_intelmpi_lp64.so
                   /sw/installed/imkl/2019.1.144-iimpi-2019a/mkl/lib/intel64/libmkl_scalapack_lp64.so

  Using       24 parallel tasks.
  Task        0 on host taurusi6540.taurus.hrsk.tu-dresden.de reporting.
  Task        1 on host taurusi6540.taurus.hrsk.tu-dresden.de reporting.
  Task        2 on host taurusi6540.taurus.hrsk.tu-dresden.de reporting.
  Task        3 on host taurusi6540.taurus.hrsk.tu-dresden.de reporting.
  Task        4 on host taurusi6540.taurus.hrsk.tu-dresden.de reporting.
  Task        5 on host taurusi6540.taurus.hrsk.tu-dresden.de reporting.
  Task        6 on host taurusi6540.taurus.hrsk.tu-dresden.de reporting.
  Task        7 on host taurusi6540.taurus.hrsk.tu-dresden.de reporting.
  Task        8 on host taurusi6540.taurus.hrsk.tu-dresden.de reporting.
  Task        9 on host taurusi6540.taurus.hrsk.tu-dresden.de reporting.
  Task       10 on host taurusi6540.taurus.hrsk.tu-dresden.de reporting.
  Task       11 on host taurusi6540.taurus.hrsk.tu-dresden.de reporting.
  Task       12 on host taurusi6540.taurus.hrsk.tu-dresden.de reporting.
  Task       13 on host taurusi6540.taurus.hrsk.tu-dresden.de reporting.
  Task       14 on host taurusi6540.taurus.hrsk.tu-dresden.de reporting.
  Task       15 on host taurusi6540.taurus.hrsk.tu-dresden.de reporting.
  Task       16 on host taurusi6540.taurus.hrsk.tu-dresden.de reporting.
  Task       17 on host taurusi6540.taurus.hrsk.tu-dresden.de reporting.
  Task       18 on host taurusi6540.taurus.hrsk.tu-dresden.de reporting.
  Task       19 on host taurusi6540.taurus.hrsk.tu-dresden.de reporting.
  Task       20 on host taurusi6540.taurus.hrsk.tu-dresden.de reporting.
  Task       21 on host taurusi6540.taurus.hrsk.tu-dresden.de reporting.
  Task       22 on host taurusi6540.taurus.hrsk.tu-dresden.de reporting.
  Task       23 on host taurusi6540.taurus.hrsk.tu-dresden.de reporting.

  Performing system and environment tests:
  | Environment variable OMP_NUM_THREADS correctly set to 1.
  | Maximum stacksize for task 0: unlimited
  | Maximum stacksize for task 1: unlimited
  | Maximum stacksize for task 2: unlimited
  | Maximum stacksize for task 3: unlimited
  | Maximum stacksize for task 4: unlimited
  | Maximum stacksize for task 5: unlimited
  | Maximum stacksize for task 6: unlimited
  | Maximum stacksize for task 7: unlimited
  | Maximum stacksize for task 8: unlimited
  | Maximum stacksize for task 9: unlimited
  | Maximum stacksize for task 10: unlimited
  | Maximum stacksize for task 11: unlimited
  | Maximum stacksize for task 12: unlimited
  | Maximum stacksize for task 13: unlimited
  | Maximum stacksize for task 14: unlimited
  | Maximum stacksize for task 15: unlimited
  | Maximum stacksize for task 16: unlimited
  | Maximum stacksize for task 17: unlimited
  | Maximum stacksize for task 18: unlimited
  | Maximum stacksize for task 19: unlimited
  | Maximum stacksize for task 20: unlimited
  | Maximum stacksize for task 21: unlimited
  | Maximum stacksize for task 22: unlimited
  | Maximum stacksize for task 23: unlimited
  | Current stacksize for task 0: unlimited
  | Current stacksize for task 1: unlimited
  | Current stacksize for task 2: unlimited
  | Current stacksize for task 3: unlimited
  | Current stacksize for task 4: unlimited
  | Current stacksize for task 5: unlimited
  | Current stacksize for task 6: unlimited
  | Current stacksize for task 7: unlimited
  | Current stacksize for task 8: unlimited
  | Current stacksize for task 9: unlimited
  | Current stacksize for task 10: unlimited
  | Current stacksize for task 11: unlimited
  | Current stacksize for task 12: unlimited
  | Current stacksize for task 13: unlimited
  | Current stacksize for task 14: unlimited
  | Current stacksize for task 15: unlimited
  | Current stacksize for task 16: unlimited
  | Current stacksize for task 17: unlimited
  | Current stacksize for task 18: unlimited
  | Current stacksize for task 19: unlimited
  | Current stacksize for task 20: unlimited
  | Current stacksize for task 21: unlimited
  | Current stacksize for task 22: unlimited
  | Current stacksize for task 23: unlimited
  | Checking for scalapack...
  | Testing pdtran()...
  | All pdtran() tests passed.

  Obtaining array dimensions for all initial allocations:
  
  -----------------------------------------------------------------------
  Parsing control.in (first pass over file, find array dimensions only).
  The contents of control.in will be repeated verbatim below
  unless switched off by setting 'verbatim_writeout .false.' .
  in the first line of control.in .
  -----------------------------------------------------------------------
  
  #===============================================================================
  # FHI-aims file: ./control.in
  # Created using the Atomic Simulation Environment (ASE)
  # Thu Apr  2 11:27:09 2020
  #===============================================================================
  xc                                 pbe
  # include_spin_orbit
  # vdw_correction_hirshfeld
  many_body_dispersion
  spin                               none
  k_grid 	 	 20 20 16
  relativistic                       atomic_zora scalar
  energy_tolerance 1e-2
  harmonic_length_scale  0.015
  ### SCF settings
  adjust_scf 	 always 	 3
  # frozen_core_scf 	 .true.
  # charge_mix_param  0.05
  # occupation_type 	 gaussian 	 0.01
  # sc_accuracy_eev   1E-3 	 	 # sum of eigenvalues convergence
  # sc_accuracy_etot  1E-6 	 	 # total energy convergence
  # sc_accuracy_rho   1E-3 	 	 # electron density convergence
  # elsi_restart 	 read_and_write 	 1000
  ### geometry optimisation section
  relax_geometry 	 bfgs 	 1E-2
  relax_unit_cell 	 full
  #===============================================================================
  
  ################################################################################
  #
  #  FHI-aims code project
  # Volker Blum, Fritz Haber Institute Berlin, 2009
  #
  #  Suggested "tight" defaults for Pd atom (to be pasted into control.in file)
  #
  ################################################################################
    species        Pd
  #     global species definitions
      nucleus             46
      mass                106.42
  #
      l_hartree           6
  #
      cut_pot             4.0  2.0  1.0
      basis_dep_cutoff    1e-4
  #
      radial_base         62 7.0
      radial_multiplier   2
      angular_grids specified
        division   0.3627   50
        division   0.7349  110
        division   1.0624  194
        division   1.2496  302
        division   1.6740  434
  #      division   2.0126  590
  #      division   2.0830  770
  #      division   2.7936 1202
  #       outer_grid  974
        outer_grid  434
  ################################################################################
  #
  #  Definition of "minimal" basis
  #
  ################################################################################
  #     valence basis states
      valence      5  s   1.
      valence      4  p   6.
      valence      4  d   9.
  #     ion occupancy
      ion_occ     5  s   0.
      ion_occ     4  p   6.
      ion_occ     4  d   8.
  ################################################################################
  #
  #  Suggested additional basis functions. For production calculations,
  #  uncomment them one after another (the most important basis functions are
  #  listed first).
  #
  #  Constructed for dimers: 2.0 A, 2.275 A, 2.75 A, 3.75 A
  #
  ################################################################################
  #  "First tier" - max. impr. -120.76  meV, min. impr. -5.71 meV
       ionic 5 p auto
       hydro 4 f 8
       hydro 5 g 10
       hydro 3 s 2.6
       hydro 3 d 2.5
  #  "Second tier" - max. impr. -5.00  meV, min. impr. -0.62 meV
  #     hydro 5 f 17.2
  #     hydro 6 h 14
  #     hydro 4 d 4
  #     hydro 5 f 7.6
  #     hydro 3 p 3.3
  #     hydro 4 s 9.4
  #  "Third tier" - max. impr. -0.54  meV, min. impr. -0.14 meV
  #     hydro 4 f 20
  #     hydro 5 g 12.8
  #     hydro 5 d 9.8
  #     hydro 6 h 15.2
  #     hydro 5 s 10
  #     hydro 6 p 9.8
  #  "Fourth tier" - max. impr. -0.15  meV, min. impr. -0.05 meV
  #     hydro 5 f 9.2
  #     hydro 2 s 5.6
  #     hydro 5 f 43.2
  #     hydro 5 d 13.2
  #     hydro 5 g 14
  #     hydro 4 p 4.7
  ################################################################################
  #
  #  FHI-aims code project
  # Volker Blum, Fritz Haber Institute Berlin, 2009
  #
  #  Suggested "tight" defaults for Se atom (to be pasted into control.in file)
  #
  ################################################################################
    species        Se
  #     global species definitions
      nucleus             34
      mass                78.96
  #
      l_hartree           6
  #
      cut_pot             4.0          2.0  1.0
      basis_dep_cutoff    1e-4
  #
      radial_base         55 7.0
      radial_multiplier   2
      angular_grids       specified
        division   0.0830  110
        division   0.1357  194
        division   0.7377  302
        division   0.8610  434
  #      division   0.9640  590
  #      division   1.0773  770
  #      division   2.5539  974
  #      outer_grid  974
        outer_grid  434
  ################################################################################
  #
  #  Definition of "minimal" basis
  #
  ################################################################################
  #     valence basis states
      valence      4  s   2.
      valence      4  p   4.
      valence      3  d  10.
  #     ion occupancy
      ion_occ      4  s   1.
      ion_occ      4  p   3.
      ion_occ      3  d  10.
  ################################################################################
  #
  #  Suggested additional basis functions. For production calculations,
  #  uncomment them one after another (the most important basis functions are
  #  listed first).
  #
  #  Constructed for dimers: 1.85 A, 2.15 A, 2.50 A, 3.00 A, 4.00 A
  #
  ################################################################################
  #  "First tier" - improvements: -336.21 meV to -36.85 meV
       hydro 3 d 4.3
       hydro 2 p 1.6
       hydro 4 f 7.2
       ionic 4 s auto
  #  "Second tier" - improvements: -14.39 meV to -1.49 meV
  #     hydro 5 g 10.4
  #     hydro 4 p 4.5
  #     hydro 4 d 6.2
  #     hydro 4 f 11.2
  #     hydro 1 s 0.65
  #     hydro 6 h 15.2
  #  "Third tier" - improvements: -0.46 meV and below
  #     hydro 5 g 14.4
  #     ionic 4 d auto
  #     hydro 4 f 22.4
  #     hydro 5 f 7.4
  #     hydro 5 p 8
  #     hydro 5 s 9.4
  #  "Fourth tier" - improvements: -0.12 meV and below
  #     hydro 5 d 11.6
  #     hydro 6 h 18
  #     hydro 4 p 4
  #     hydro 5 f 16
  #     hydro 4 s 3.9
  #
  #
  
  -----------------------------------------------------------------------
  Completed first pass over input file control.in .
  -----------------------------------------------------------------------
  
  
  -----------------------------------------------------------------------
  Parsing geometry.in (first pass over file, find array dimensions only).
  The contents of geometry.in will be repeated verbatim below
  unless switched off by setting 'verbatim_writeout .false.' .
  in the first line of geometry.in .
  -----------------------------------------------------------------------
  
  #
  # This is the geometry file that corresponds to the current relaxation step.
  # If you do not want this file to be written, set the "write_restart_geometry" flag to .false.
  #  aims_uuid : 0AF79AE8-F966-4215-A252-8DBC0901FF31
  #
  lattice_vector      5.85490574      0.00000000      0.00000000
  lattice_vector      0.00000000      5.95929968      0.00000000
  lattice_vector      0.00000000      0.00000000      7.43158038
  atom_frac       0.50241327      0.00206790      0.00190627 Pd
  atom_frac       0.00205527      0.00208249      0.50265975 Pd
  atom_frac       0.00214267      0.50243885      0.00195554 Pd
  atom_frac       0.50249990      0.50245319      0.50260999 Pd
  atom_frac       0.61428000      0.12006558      0.40431785 Se
  atom_frac       0.89103651      0.88488490      0.90452494 Se
  atom_frac       0.11390469      0.38453393      0.60074140 Se
  atom_frac       0.39061989      0.62040731      0.10024268 Se
  atom_frac       0.39066450      0.88490015      0.60074227 Se
  atom_frac       0.11394011      0.12007223      0.10026143 Se
  atom_frac       0.89100818      0.62040032      0.40432025 Se
  atom_frac       0.61426015      0.38451830      0.90454278 Se
  #
  # What follows is the current estimated Hessian matrix constructed by the BFGS algorithm.
  # This is NOT the true Hessian matrix of the system.
  # If you do not want this information here, switch it off using the "hessian_to_restart_geometry" keyword.
  #
  trust_radius             0.0122098479
  hessian_block                1       1           5.962725           0.050196          -2.198286           0.050196           6.51578
  hessian_block                1       2          -0.046906           0.548600           0.055534           0.309382           0.17672
  hessian_block                1       3          -0.077103           0.573644           0.051531          -0.056128          -0.11334
  hessian_block                1       4           0.504922           0.185309          -0.081540           0.121418          -0.59109
  hessian_block                1       5          -0.037778          -0.439920          -0.187387          -0.336949           0.42720
  hessian_block                1       6          -1.776210          -0.136034           0.590863           0.432365          -0.45085
  hessian_block                1       7          -0.372326           0.401687           0.270592           0.074063           0.17380
  hessian_block                1       8          -0.205759          -0.509492           0.329283          -0.319712          -1.89311
  hessian_block                1       9          -0.125199          -0.007622           0.176267          -0.422640          -0.46534
  hessian_block                1      10          -2.295445           0.911334           1.058813           0.061061          -0.46358
  hessian_block                1      11           0.079987          -0.690570          -0.238307           0.259421           0.30391
  hessian_block                1      12          -0.044995          -0.887133           0.172636          -0.172478          -1.97306
  hessian_block                2       2           6.109759           0.301248           2.289530           0.301248           7.27241
  hessian_block                2       3           0.910848           0.820402           0.445006          -0.418422          -0.52571
  hessian_block                2       4           0.192492           0.636236           0.182634          -0.577855           0.67370
  hessian_block                2       5          -2.078090           0.036823          -0.983475           0.537897          -0.72598
  hessian_block                2       6          -0.559368          -0.041555           0.126820          -0.290972          -0.89197
  hessian_block                2       7           0.035879          -0.735228          -0.400955          -0.430511          -1.53395
  hessian_block                2       8          -0.224779          -0.592190          -0.322857           0.072219          -0.40238
  hessian_block                2       9          -2.052545           0.405662          -0.939596           0.589994          -0.81534
  hessian_block                2      10           0.508616          -0.179879          -0.009785           0.172601           0.96135
  hessian_block                2      11          -0.644647          -0.638639          -0.150286          -0.415742          -3.25526
  hessian_block                2      12          -0.585347          -0.322262          -0.204063          -0.089057           0.71344
  hessian_block                3       3           6.592737          -0.543393           2.424359          -0.543393           6.30442
  hessian_block                3       4           0.330264          -0.284899          -0.043485          -0.336133           0.06585
  hessian_block                3       5          -0.584729           0.137877          -0.298435          -0.178983           0.49663
  hessian_block                3       6          -0.758121           0.444271          -0.524053          -0.042312          -1.74510
  hessian_block                3       7           0.114117           0.155442           0.226184           0.226190          -0.13981
  hessian_block                3       8          -2.169556          -0.197160          -0.852955          -0.713065          -0.27433
  hessian_block                3       9          -0.296998           0.344188           0.122859          -0.024211          -0.18886
  hessian_block                3      10           0.478257           0.551347           0.173411           1.133339          -2.20882
  hessian_block                3      11          -0.476330           0.068533          -0.207944          -0.514494           0.31109
  hessian_block                3      12          -2.497476          -0.201656          -1.046698          -0.400982          -0.33497
  hessian_block                4       4           5.944665           0.190371          -1.948012           0.190371           7.07202
  hessian_block                4       5          -0.485542           0.615237           0.203373           0.091523          -2.35301
  hessian_block                4       6          -0.022252           0.534049           0.173441          -0.240999          -0.42002
  hessian_block                4       7          -2.015105          -0.984265           0.656996          -0.208501          -0.15854
  hessian_block                4       8          -0.281230          -0.236509          -0.192617           0.045455          -0.47354
  hessian_block                4       9          -0.265852           0.699280           0.166391           0.117907          -2.21945
  hessian_block                4      10          -0.420878          -0.464539          -0.192392          -0.135647           0.89449
  hessian_block                4      11          -1.802979           0.065523           0.916617          -0.833437          -1.40312
  hessian_block                4      12          -0.112594           0.373423          -0.026575           0.436681           0.55975
  hessian_block                5       5           5.342225          -0.386200          -1.196275          -0.386200           6.36409
  hessian_block                5       6           0.266178          -0.481903          -0.454395           0.206263          -0.22478
  hessian_block                5       7          -0.374478           1.159615           0.096869          -0.929573           0.06041
  hessian_block                5       8           0.131184           0.207019           0.435974           0.527643          -0.05823
  hessian_block                5       9          -1.349321          -0.419127           1.680328          -0.399049          -1.88306
  hessian_block                5      10          -0.143217           0.565530           0.487679           0.017599          -0.04836
  hessian_block                5      11           0.514264          -0.986799          -0.048302           1.057845           0.22822
  hessian_block                5      12           0.365214           0.228376          -0.485079          -0.444546          -0.63610
  hessian_block                6       6           5.753574           0.419518           1.809624           0.419518           5.80951
  hessian_block                6       7          -0.072954          -0.135773          -0.014354           0.488667           0.18925
  hessian_block                6       8          -0.130546           0.379925           0.171052           0.117229           0.23959
  hessian_block                6       9           0.102078           0.116787          -0.006932           0.284259           0.80676
  hessian_block                6      10          -2.004727          -1.314875          -2.814612          -0.998039          -2.05359
  hessian_block                6      11           0.282408           0.338731          -0.168214          -0.816344           0.54332
  hessian_block                6      12           0.485848           0.131342           0.282710           0.185880          -0.15509
  hessian_block                7       7           5.473782           0.531018           1.113388           0.531018           6.09981
  hessian_block                7       8          -0.019522          -0.115551           0.038286           0.006623          -0.41811
  hessian_block                7       9           0.354860           0.595414          -0.249120          -0.638913          -0.42145
  hessian_block                7      10           0.274422          -0.582871          -0.165022           0.040823          -0.33062
  hessian_block                7      11          -1.914665           0.437257          -1.685985           0.689237          -2.40437
  hessian_block                7      12           0.081900          -0.085605           0.505526          -0.490269           0.53060
  hessian_block                8       8           4.753451           0.094234          -0.930726           0.094234           5.64465
  hessian_block                8       9           0.232664          -0.517064          -0.211919           0.165568           0.18792
  hessian_block                8      10           0.069179          -0.238545           0.229822          -0.617151          -0.51789
  hessian_block                8      11           0.161501          -0.138679          -0.166901           0.589583           1.17272
  hessian_block                8      12          -0.750678           1.063662           1.732075           0.831725          -1.56027
  hessian_block                9       9           5.034631          -0.532107          -0.790487          -0.532107           6.45900
  hessian_block                9      10          -0.050932           0.274975          -0.149735          -0.177435          -0.09618
  hessian_block                9      11          -0.154636           0.858371          -0.093327          -0.739933           0.50816
  hessian_block                9      12           0.137159          -0.274155           0.667419           0.231957          -0.22511
  hessian_block               10      10           5.863505           0.552592           1.669375           0.552592           6.90933
  hessian_block               10      11          -0.168823           0.086625           0.476763           0.403008          -1.42051
  hessian_block               10      12          -0.544047          -0.136366          -0.190351          -0.478077           0.02141
  hessian_block               11      11           5.575522           0.239360           0.777843           0.239360           8.02697
  hessian_block               11      12           0.114309           0.081494          -0.466169           0.360285          -0.96410
  hessian_block               12      12           4.916617           0.028880          -0.941435           0.028880           5.67052
  hessian_block_lv             1       1          23.571757          -3.358379           4.961493          -3.358379          24.04730
  hessian_block_lv_atom        1       1           0.269086           0.402803           0.072695          -0.508128          -0.73011
  hessian_block_lv_atom        1       2          -0.613062          -1.005951          -0.252211           0.195261          -0.20921
  hessian_block_lv_atom        1       3          -0.645092          -1.094295          -0.276074           0.248490           0.48297
  hessian_block_lv_atom        1       4           0.117433           0.113495           0.005764           0.885102           0.91932
  hessian_block_lv_atom        1       5           0.280210           0.448744           0.359612           0.081642          -0.07023
  hessian_block_lv_atom        1       6           0.155958          -0.016711          -0.265020          -0.503806          -0.28292
  hessian_block_lv_atom        1       7          -0.618037          -0.888518           0.088214          -0.756646          -1.03036
  hessian_block_lv_atom        1       8          -0.084699           0.191893          -0.247338           0.106522           0.27265
  hessian_block_lv_atom        1       9           0.142146           0.248560          -0.189491          -0.619395          -0.41323
  hessian_block_lv_atom        1      10          -0.222985           0.026550           0.311319           0.619534           0.24055
  hessian_block_lv_atom        1      11           0.696275           1.092594          -0.009946           0.212807           0.80584
  hessian_block_lv_atom        1      12           0.522767           0.480839           0.402477           0.038614           0.01472
  symmetry_n_params 39 3 36
  symmetry_params a1 b2 c3 x0 x1 x2 x3 x4 x5 x6 x7 x8 x9 x10 x11 x12 x13 x14 x15 x16 x17 x18 x19 x20 x21 x22 x23 x24 x25 x26 x27 x28 x
  symmetry_lv a1 , 0 , 0
  symmetry_lv 0 , b2 , 0
  symmetry_lv 0 , 0 , c3
  symmetry_frac x0 , x1 , x2
  symmetry_frac x3 , x4 , x5
  symmetry_frac x6 , x7 , x8
  symmetry_frac x9 , x10 , x11
  symmetry_frac x12 , x13 , x14
  symmetry_frac x15 , x16 , x17
  symmetry_frac x18 , x19 , x20
  symmetry_frac x21 , x22 , x23
  symmetry_frac x24 , x25 , x26
  symmetry_frac x27 , x28 , x29
  symmetry_frac x30 , x31 , x32
  symmetry_frac x33 , x34 , x35
  
  -----------------------------------------------------------------------
  Completed first pass over input file geometry.in .
  -----------------------------------------------------------------------
  

  Basic array size parameters:
  | Number of species                 :        2
  | Number of atoms                   :       12
  | Number of lattice vectors         :        3
  | Max. basis fn. angular momentum   :        4
  | Max. atomic/ionic basis occupied n:        5
  | Max. number of basis fn. types    :        3
  | Max. radial fns per species/type  :       10
  | Max. logarithmic grid size        :     1444
  | Max. radial integration grid size :      125
  | Max. angular integration grid size:      434
  | Max. angular grid division number :        8
  | Radial grid for Hartree potential :     1444
  | Number of spin channels           :        1

------------------------------------------------------------
          Reading file control.in.
------------------------------------------------------------
  XC: Using PBE gradient-corrected functionals.
  Using libMBD for calculating MBD and TS energies
  Spin treatment: No spin polarisation.
  Found k-point grid:        20        20        16
  Scalar relativistic treatment of kinetic energy: on-site free-atom approximation to ZORA.
  Max energy increase before discarding BFGS move:   0.100000E-01 eV
  Assuming qualitatively harmonic for steps shorter than   0.150000E-01 A.
  S.C.F. convergence parameters will be adjusted in iteration number     3 of each new s.c.f. cycle.
  Geometry relaxation: Modified BFGS - TRM (trust radius method) for lattice optimization.
  Convergence accuracy for geometry relaxation: Maximum force <   0.100000E-01 eV/A.
 
  Reading configuration options for species Pd                  .
  | Found nuclear charge :  46.0000
  | Found atomic mass :    106.420000000000      amu
  | Found l_max for Hartree potential  :   6
  | Found cutoff potl. onset [A], width [A], scale factor :    4.00000    2.00000    1.00000
  | Threshold for basis-dependent cutoff potential is   0.100000E-03
  | Found data for basic radial integration grid :    62 points, outermost radius =    7.000 A
  | Found multiplier for basic radial grid :   2
  | Found angular grid specification: user-specified.
  | Specified grid contains     6 separate shells.
  | Check grid settings after all constraints further below.
  | Found free-atom valence shell :  5 s   1.000
  | Found free-atom valence shell :  4 p   6.000
  | Found free-atom valence shell :  4 d   9.000
  | Found free-ion valence shell :  5 s   0.000
  | Found free-ion valence shell :  4 p   6.000
  | Found free-ion valence shell :  4 d   8.000
  | Found ionic basis function :  5 p , default cutoff radius.
  | Found hydrogenic basis function :  4 f   8.000
  | Found hydrogenic basis function :  5 g  10.000
  | Found hydrogenic basis function :  3 s   2.600
  | Found hydrogenic basis function :  3 d   2.500
  Species Pd                  : Missing cutoff potential type.
  Defaulting to exp(1/x)/(1-x)^2 type cutoff potential.
  Species Pd: No 'logarithmic' tag. Using default grid for free atom:
  | Default logarithmic grid data [bohr] : 0.1000E-03 0.1000E+03 0.1012E+01
  | Will include ionic basis functions of  2.0-fold positive Pd                   ion.
  Species Pd: On-site basis accuracy parameter (for Gram-Schmidt orthonormalisation) not specified.
  Using default value basis_acc =  0.1000000E-03.
  Species Pd                  : Using default innermost maximum threshold i_radial=  2 for radial functions.
  Species Pd                  : Default cutoff onset for free atom density etc. : 0.40000000E+01 AA.
  Species Pd                  : Basic radial grid will be enhanced according to radial_multiplier =   2, to contain   125 grid points.
 
  Reading configuration options for species Se                  .
  | Found nuclear charge :  34.0000
  | Found atomic mass :    78.9600000000000      amu
  | Found l_max for Hartree potential  :   6
  | Found cutoff potl. onset [A], width [A], scale factor :    4.00000    2.00000    1.00000
  | Threshold for basis-dependent cutoff potential is   0.100000E-03
  | Found data for basic radial integration grid :    55 points, outermost radius =    7.000 A
  | Found multiplier for basic radial grid :   2
  | Found angular grid specification: user-specified.
  | Specified grid contains     5 separate shells.
  | Check grid settings after all constraints further below.
  | Found free-atom valence shell :  4 s   2.000
  | Found free-atom valence shell :  4 p   4.000
  | Found free-atom valence shell :  3 d  10.000
  | Found free-ion valence shell :  4 s   1.000
  | Found free-ion valence shell :  4 p   3.000
  | Found free-ion valence shell :  3 d  10.000
  | Found hydrogenic basis function :  3 d   4.300
  | Found hydrogenic basis function :  2 p   1.600
  | Found hydrogenic basis function :  4 f   7.200
  | Found ionic basis function :  4 s , default cutoff radius.
  Species Se                  : Missing cutoff potential type.
  Defaulting to exp(1/x)/(1-x)^2 type cutoff potential.
  Species Se: No 'logarithmic' tag. Using default grid for free atom:
  | Default logarithmic grid data [bohr] : 0.1000E-03 0.1000E+03 0.1012E+01
  | Will include ionic basis functions of  2.0-fold positive Se                   ion.
  Species Se: On-site basis accuracy parameter (for Gram-Schmidt orthonormalisation) not specified.
  Using default value basis_acc =  0.1000000E-03.
  Species Se                  : Using default innermost maximum threshold i_radial=  2 for radial functions.
  Species Se                  : Default cutoff onset for free atom density etc. : 0.40000000E+01 AA.
  Species Se                  : Basic radial grid will be enhanced according to radial_multiplier =   2, to contain   111 grid points.
 
  Finished reading input file 'control.in'. Consistency checks are next.
 
  MPI_IN_PLACE appears to work with this MPI implementation.
  | Keeping use_mpi_in_place .true. (see manual).
  Target number of points in a grid batch is not set. Defaulting to  100
  Method for grid partitioning is not set. Defaulting to parallel hash+maxmin partitioning.
  Batch size limit is not set. Defaulting to    200
  By default, will store active basis functions for each batch.
  If in need of memory, prune_basis_once .false. can be used to disable this option.
  communication_type for Hartree potential was not specified.
  Defaulting to calc_hartree .
  Defaulting to Pulay charge density mixer.
  Pulay mixer: Number of relevant iterations not set.
  Defaulting to    8 iterations.
  Pulay mixer: Number of initial linear mixing iterations not set.
  Defaulting to    0 iterations.
  Work space size for distributed Hartree potential not set.
  Defaulting to   0.200000E+03 MB.
  Mixing parameter for charge density mixing has not been set.
  Using default: charge_mix_param =     0.0500.
  The mixing parameter will be adjusted in iteration number     3 of each s.c.f. cycle (i.e., each geometry step).
  Algorithm-dependent basis array size parameters:
  | n_max_pulay                         :        8
  Maximum number of self-consistency iterations not provided.
  Presetting  1000 iterations.
  Presetting      1001 iterations before the initial mixing cycle
  is restarted anyway using the sc_init_iter criterion / keyword.
  Presetting a factor      1.000 between actual scf density residual
  and density convergence criterion sc_accuracy_rho below which sc_init_iter
  takes no effect.
 * No s.c.f. convergence criteria (sc_accuracy_*) were provided in control.in.
 * The run will proceed with a reasonable default guess, but please check whether.
 * the s.c.f. cycles seem to take too much or too little time.
  No maximum number of relaxation steps, defaulting to     1000
  Using explicit Hessian from geometry.in.
  Maximum energy tolerance by which TRM/BFGS trajectory may increase over multiple steps:   0.300000E-02
  No trust radius initializer. Defaulting to   0.200000E+00 A.
  Unit cell relaxation: Unit cell will be relaxed fully.
  Unit cell relaxation: Analytical stress will be used.
  Analytical stress will be computed.
  Analytical stress calculation: Only the upper triangle is calculated.
                                 Final output is symmetrized.
  Analytical stress calculation: scf convergence accuracy of stress not set.
                                 Analytical stress self-consistency will not be checked explicitly.
                                 Be sure to set other criteria like sc_accuracy_rho tight enough.
 * Notice: The s.c.f. convergence criterion sc_accuracy_rho was not provided.
 * We used to stop in this case, and ask the user to provide reasonable
 * scf convergence criteria. However, this led some users to employ criteria
 * that led to extremely long run times, e.g., for simple relaxation.
 * We now preset a default value for sc_accuracy_rho if it is not set.
 * You may still wish to check if this setting is too tight or too loose for your needs.
 * Based on n_atoms, FHI-aims chose sc_accuracy_rho =  0.141421E-05 .
  Force calculation: scf convergence accuracy of forces not set.
  Defaulting to 'sc_accuracy_forces not_checked'.
  Handling of forces: Unphysical translation and rotation will be removed from forces.
  No accuracy limit for integral partition fn. given. Defaulting to  0.1000E-14.
  No threshold value for u(r) in integrations given. Defaulting to  0.1000E-05.
  No occupation type (smearing scheme) given. Defaulting to Gaussian broadening, width =  0.1000E-01 eV.
  The width will be adjusted in iteration number     3 of each s.c.f. cycle (i.e., each geometry step).
  S.C.F. convergence parameters will be adjusted in iteration number     3 of the first full s.c.f. cycle only.
  No accuracy for occupation numbers given. Defaulting to  0.1000E-12.
  No threshold value for occupation numbers given. Defaulting to  0.0000E+00.
  No accuracy for fermi level given. Defaulting to  0.1000E-19.
  Maximum # of iterations to find E_F not set. Defaulting to  200.
  Preferred method for the eigenvalue solver ('KS_method') not specified in 'control.in'.
  Defaulting to serial version, LAPACK (via ELSI), since more k-points than CPUs available.
  Will not use alltoall communication since running on < 1024 CPUs.
  Threshold for basis singularities not set.
  Default threshold for basis singularities:  0.1000E-04
  partition_type (choice of integration weights) for integrals was not specified.
  | Using a version of the partition function of Stratmann and coworkers ('stratmann_sparse').
  | At each grid point, the set of atoms used to build the partition table is smoothly restricted to
  | only those atoms whose free-atom density would be non-zero at that grid point.
  Partitioning for Hartree potential was not defined. Using partition_type for integrals.
  | Adjusted default value of keyword multip_moments_threshold to:       0.10000000E-11
  | This value may affect high angular momentum components of the Hartree potential in periodic systems.
  Angular momentum expansion for Kerker preconditioner not set explicitly.
  | Using default value of   0
  No explicit requirement for turning off preconditioner.
  | By default, it will be turned off when the charge convergence reaches
  | sc_accuracy_rho  =   0.141421E-05
  No special mixing parameter while Kerker preconditioner is on.
  Using default: charge_mix_param =     0.0500.
  No q(lm)/r^(l+1) cutoff set for long-range Hartree potential.
  | Using default value of  0.100000E-09 .
  | Verify using the multipole_threshold keyword.
  Defaulting to new monopole extrapolation.
  Density update method: automatic selection selected.
  Using density matrix based charge density update.
  Using density matrix based charge density update.
  Using packed matrix style: index .
  Geometry relaxation: A file "geometry.in.next_step" is written out by default after each step.
  | This file contains the geometry of the current relaxation step as well as
  | the current Hessian matrix needed to restart the relaxation algorithm.
  | If you do not want part or all of this information, use the keywords
  | "write_restart_geometry" or "hessian_to_restart_geometry" to switch the output off.
  Defaulting to use time-reversal symmetry for k-point grid.
  Charge integration errors on the 3D integration grid will be compensated
  by explicit normalization and distribution of residual charges.
  Use the "compensate_multipole_errors" flag to change this behaviour.
------------------------------------------------------------


------------------------------------------------------------
          Reading geometry description geometry.in.
------------------------------------------------------------
  Input structure read successfully.
  The structure contains       12 atoms,  and a total of        456.000 electrons.

  Input geometry:
  | Unit cell:
  |        5.85490574        0.00000000        0.00000000
  |        0.00000000        5.95929968        0.00000000
  |        0.00000000        0.00000000        7.43158038
  | Atomic structure:
  |       Atom                x [A]            y [A]            z [A]
  |    1: Species Pd            2.94158234        0.01232324        0.01416660
  |    2: Species Pd            0.01203341        0.01241018        3.73555634
  |    3: Species Pd            0.01254513        2.99418368        0.01453275
  |    4: Species Pd            2.94208955        2.99426913        3.73518654
  |    5: Species Se            3.59655150        0.71550677        3.00472060
  |    6: Species Se            5.21693478        5.27329430        6.72204980
  |    7: Species Se            0.66690122        2.29155293        4.46445800
  |    8: Species Se            2.28704264        3.69719308        0.74496153
  |    9: Species Se            2.28730382        5.27338518        4.46446447
  |   10: Species Se            0.66710860        0.71554640        0.74510088
  |   11: Species Se            5.21676891        3.69715143        3.00473844
  |   12: Species Se            3.59643528        2.29145978        6.72218238

  Lattice parameters for 3D lattice (in Angstroms) :     5.854906    5.959300    7.431580
  Angle(s) between unit vectors (in degrees)       :    90.000000   90.000000   90.000000

  | The smallest distance between any two atoms is         2.40489766 AA.
  | The first atom of this pair is atom number                      6 .
  | The second atom of this pair is atom number                    10 .
  | Wigner-Seitz cell of the first atom image           0     0     0 .
  | (The Wigner-Seitz cell of the second atom is 0 0 0  by definition.)

  Symmetry information by spglib:
  | Precision set to  0.1E-04
  | Number of Operations  : 1
  | Space group           : 1
  | International         : P1
  | Schoenflies           : C1^1

  Quantities derived from the lattice vectors:
  | Reciprocal lattice vector 1:  1.073149  0.000000  0.000000
  | Reciprocal lattice vector 2:  0.000000  1.054350  0.000000
  | Reciprocal lattice vector 3:  0.000000  0.000000  0.845471
  | Unit cell volume                               :   0.259296E+03  A^3

  Range separation radius for Ewald summation (hartree_convergence_parameter):      3.99888666 bohr.

  Fractional coordinates:
                         L1                L2                L3
       atom_frac         0.50241327        0.00206790        0.00190627  Pd
       atom_frac         0.00205527        0.00208249        0.50265975  Pd
       atom_frac         0.00214267        0.50243885        0.00195554  Pd
       atom_frac         0.50249990        0.50245319        0.50260999  Pd
       atom_frac         0.61428000        0.12006558        0.40431785  Se
       atom_frac         0.89103651        0.88488490        0.90452494  Se
       atom_frac         0.11390469        0.38453393        0.60074140  Se
       atom_frac         0.39061989        0.62040731        0.10024268  Se
       atom_frac         0.39066450        0.88490015        0.60074227  Se
       atom_frac         0.11394011        0.12007223        0.10026143  Se
       atom_frac         0.89100818        0.62040032        0.40432025  Se
       atom_frac         0.61426015        0.38451830        0.90454278  Se

  Number of empty states per atom not set in control.in - providing a guess from actual geometry.
  | Total number of empty states used during s.c.f. cycle:       66
  If you use a very high smearing, use empty_states (per atom!) in control.in to increase this value.

  Structure-dependent array size parameters: 
  | Maximum number of distinct radial functions  :       27
  | Maximum number of basis functions            :      468
  | Number of Kohn-Sham states (occupied + empty):      294
------------------------------------------------------------

------------------------------------------------------------
          Preparing all fixed parts of the calculation.
------------------------------------------------------------
  Determining machine precision:
    2.225073858507201E-308
  Setting up grids for atomic and cluster calculations.

  Creating wave function, potential, and density for free atoms.

  Species: Pd

  List of occupied orbitals and eigenvalues:
    n    l              occ      energy [Ha]    energy [eV]
    1    0           2.0000      -913.269104    -24851.3168
    2    0           2.0000      -130.434372     -3549.2998
    3    0           2.0000       -23.521804      -640.0609
    4    0           2.0000        -3.256918       -88.6253
    5    0           1.0000        -0.157260        -4.2793
    2    1           6.0000      -116.910756     -3181.3035
    3    1           6.0000       -19.103344      -519.8284
    4    1           6.0000        -1.998052       -54.3697
    3    2          10.0000       -12.098182      -329.2083
    4    2           9.0000        -0.243389        -6.6230


  Species: Se

  List of occupied orbitals and eigenvalues:
    n    l              occ      energy [Ha]    energy [eV]
    1    0           2.0000      -466.337810    -12689.6975
    2    0           2.0000       -59.202598     -1610.9847
    3    0           2.0000        -7.847116      -213.5309
    4    0           2.0000        -0.634372       -17.2621
    2    1           6.0000       -52.061107     -1416.6548
    3    1           6.0000        -5.620941      -152.9536
    4    1           4.0000        -0.238469        -6.4891
    3    2          10.0000        -1.951949       -53.1152

  Creating fixed part of basis set: Ionic, confined, hydrogenic.
 
  Pd                   ion:

  List of free ionic orbitals and eigenvalues:
    n    l      energy [Ha]    energy [eV]
    1    0      -914.099884    -24873.9234
    2    0      -131.248265     -3571.4470
    3    0       -24.332473      -662.1203
    4    0        -4.059276      -110.4585
    2    1      -117.724296     -3203.4411
    3    1       -19.913908      -541.8850
    4    1        -2.795328       -76.0648
    3    2       -12.908733      -351.2645
    4    2        -1.004248       -27.3270


  List of ionic basis orbitals and eigenvalues:
    n    l      energy [Ha]    energy [eV]    outer radius [A]
    5    1        -0.516938       -14.0666       5.427025

 
  Pd                   hydrogenic:
 
  List of hydrogenic basis orbitals: 
    n    l      effective z      eigenvalue [eV]  inner max. [A]     outer max. [A]     outer radius [A]   
    4    3         8.000000       -54.4226           1.054686           1.054686           4.629581
    5    4        10.000000       -54.4226           1.330451           1.330451           5.043202
    3    0         2.600000        -9.8948           0.150992           2.606197           5.493778
    3    2         2.500000        -9.3396           1.873517           1.873517           5.493778
 
 
  Se                   ion:

  List of free ionic orbitals and eigenvalues:
    n    l      energy [Ha]    energy [eV]
    1    0      -467.261007    -12714.8189
    2    0       -60.104893     -1635.5374
    3    0        -8.743714      -237.9286
    4    0        -1.414053       -38.4783
    2    1       -52.964156     -1441.2280
    3    1        -6.516916      -177.3343
    4    1        -0.961869       -26.1738
    3    2        -2.844511       -77.4031


  List of ionic basis orbitals and eigenvalues:
    n    l      energy [Ha]    energy [eV]    outer radius [A]
    4    0        -1.414046       -38.4782       4.083166

 
  Se                   hydrogenic:
 
  List of hydrogenic basis orbitals: 
    n    l      effective z      eigenvalue [eV]  inner max. [A]     outer max. [A]     outer radius [A]   
    3    2         4.300000       -27.9518           1.103845           1.103845           5.278265
    2    1         1.600000        -8.6828           1.326010           1.326010           5.475439
    4    3         7.200000       -44.0822           1.173422           1.173422           4.965294
 

  Adding cutoff potential to free-atom effective potential.
  Creating atomic-like basis functions for current effective potential.

  Species Pd                  :

  List of atomic basis orbitals and eigenvalues:
    n    l      energy [Ha]    energy [eV]    outer radius [A]
    1    0      -913.269104    -24851.3168       0.223280
    2    0      -130.434372     -3549.2998       0.615909
    3    0       -23.521804      -640.0609       1.414312
    4    0        -3.256918       -88.6253       3.581357
    5    0        -0.157260        -4.2793       5.427025
    2    1      -116.910756     -3181.3035       0.631154
    3    1       -19.103344      -519.8284       1.540671
    4    1        -1.998052       -54.3697       4.408641
    3    2       -12.098182      -329.2083       1.806051
    4    2        -0.243389        -6.6230       5.361084


  Species Se                  :

  List of atomic basis orbitals and eigenvalues:
    n    l      energy [Ha]    energy [eV]    outer radius [A]
    1    0      -466.337810    -12689.6975       0.309561
    2    0       -59.202598     -1610.9847       0.885812
    3    0        -7.847116      -213.5309       2.355489
    4    0        -0.634372       -17.2621       5.214131
    2    1       -52.061107     -1416.6548       0.907737
    3    1        -5.620941      -152.9536       2.694529
    4    1        -0.238469        -6.4891       5.408909
    3    2        -1.951949       -53.1152       4.083166

  Assembling full basis from fixed parts.
  | Species Pd :   atomic orbital   1 s accepted.
  | Species Pd :   atomic orbital   2 s accepted.
  | Species Pd :   atomic orbital   3 s accepted.
  | Species Pd :   atomic orbital   4 s accepted.
  | Species Pd :   atomic orbital   5 s accepted.
  | Species Pd :    hydro orbital   3 s accepted.
  | Species Pd :   atomic orbital   2 p accepted.
  | Species Pd :   atomic orbital   3 p accepted.
  | Species Pd :   atomic orbital   4 p accepted.
  | Species Pd :    ionic orbital   5 p accepted.
  | Species Pd :   atomic orbital   3 d accepted.
  | Species Pd :   atomic orbital   4 d accepted.
  | Species Pd :    hydro orbital   3 d accepted.
  | Species Pd :    hydro orbital   4 f accepted.
  | Species Pd :    hydro orbital   5 g accepted.
  | Species Se :   atomic orbital   1 s accepted.
  | Species Se :   atomic orbital   2 s accepted.
  | Species Se :   atomic orbital   3 s accepted.
  | Species Se :    ionic orbital   4 s accepted.
  | Species Se :   atomic orbital   4 s accepted.
  | Species Se :   atomic orbital   2 p accepted.
  | Species Se :   atomic orbital   3 p accepted.
  | Species Se :   atomic orbital   4 p accepted.
  | Species Se :    hydro orbital   2 p accepted.
  | Species Se :   atomic orbital   3 d accepted.
  | Species Se :    hydro orbital   3 d accepted.
  | Species Se :    hydro orbital   4 f accepted.
 
  Basis size parameters after reduction:
  | Total number of radial functions:       27
  | Total number of basis functions :      468
 
  Per-task memory consumption for arrays in subroutine allocate_ext:
  |           9.993344MB.
  Testing on-site integration grid accuracy.
  |  Species  Function  <phi|h_atom|phi> (log., in eV)  <phi|h_atom|phi> (rad., in eV)
           1        1             -24851.3167505682             -24851.3148165635
           1        2              -3549.2998457785              -3549.2998098031
           1        3               -640.0608571327               -640.0608534886
           1        4                -88.6252603131                -88.6252593316
           1        5                 -4.2849374515                 -4.2849400622
           1        6                  4.9432123540                  4.9432188418
           1        7              -3181.3035399559              -3181.3035364574
           1        8               -519.8284281886               -519.8284264063
           1        9                -54.3697495804                -54.3697489261
           1       10                  0.8628369484                  0.8628370487
           1       11               -329.2082917394               -329.2082912864
           1       12                 -6.6230267036                 -6.6230265076
           1       13                  5.4924295291                  5.4924115607
           1       14                 25.0740861942                 25.0740861175
           1       15                 38.8271273823                 38.8271278029
           2       16             -12689.6974611609             -12689.6967666984
           2       17              -1610.9846578580              -1610.9846472470
           2       18               -213.5308789869               -213.5308777267
           2       19                -17.0464428502                -17.0464426496
           2       20                  6.7356859379                  6.7356842047
           2       21              -1416.6548010133              -1416.6548002108
           2       22               -152.9535734377               -152.9535727493
           2       23                 -6.4896265677                 -6.4896303794
           2       24                  5.2703037283                  5.2701679583
           2       25                -53.1152220964                -53.1152219035
           2       26                  7.6186674138                  7.6186665630
           2       27                 23.1072799052                 23.1072803137

  Preparing densities etc. for the partition functions (integrals / Hartree potential).

  Preparations completed.
  max(cpu_time)          :      0.555 s.
  Wall clock time (cpu1) :      0.589 s.
------------------------------------------------------------

------------------------------------------------------------
          Begin self-consistency loop: Initialization.

          Date     :  20200420, Time     :  204650.815
------------------------------------------------------------

  Initializing index lists of integration centers etc. from given atomic structure:
  Mapping all atomic coordinates to central unit cell.

  Initializing the k-points
  Using symmetry for reducing the k-points
  | k-points reduced from:     6400 to     3204
  | Number of k-points                             :      3204
  The eigenvectors in the calculations are COMPLEX.
  | K-points in task   0:       133
  | K-points in task   1:       134
  | K-points in task   2:       134
  | K-points in task   3:       134
  | K-points in task   4:       134
  | K-points in task   5:       134
  | K-points in task   6:       134
  | K-points in task   7:       134
  | K-points in task   8:       134
  | K-points in task   9:       134
  | K-points in task  10:       134
  | K-points in task  11:       134
  | K-points in task  12:       134
  | K-points in task  13:       133
  | K-points in task  14:       133
  | K-points in task  15:       133
  | K-points in task  16:       133
  | K-points in task  17:       133
  | K-points in task  18:       133
  | K-points in task  19:       133
  | K-points in task  20:       133
  | K-points in task  21:       133
  | K-points in task  22:       133
  | K-points in task  23:       133
  | Number of basis functions in the Hamiltonian integrals :      5560
  | Number of basis functions in a single unit cell        :       468
  | Number of centers in hartree potential         :      1325
  | Number of centers in hartree multipole         :       769
  | Number of centers in electron density summation:       596
  | Number of centers in basis integrals           :       640
  | Number of centers in integrals                 :       236
  | Number of centers in hamiltonian               :       596
  | Consuming       4305 KiB for k_phase.
  | Number of super-cells (origin) [n_cells]                     :         567
  | Number of super-cells (after PM_index) [n_cells]             :          86
  | Number of super-cells in hamiltonian [n_cells_in_hamiltonian]:          86
  | Size of matrix packed + index [n_hamiltonian_matrix_size] :     1293573

  Initializing relaxation algorithms.
  | Estimated reciprocal-space cutoff momentum G_max:         2.42890461 bohr^-1 .
  | Reciprocal lattice points for long-range Hartree potential:     418
  Partitioning the integration grid into batches with parallel hashing+maxmin method.
  | Number of batches:     4181
  | Maximal batch size:     110
  | Minimal batch size:      49
  | Average batch size:      91.877
  | Standard deviation of batch sizes:      11.399

  Integration load balanced across    24 MPI tasks.
  Work distribution over tasks is as follows:
  Task     0 has      15992 integration points.
  Task     1 has      15965 integration points.
  Task     2 has      15973 integration points.
  Task     3 has      16031 integration points.
  Task     4 has      16022 integration points.
  Task     5 has      15996 integration points.
  Task     6 has      16025 integration points.
  Task     7 has      16039 integration points.
  Task     8 has      15998 integration points.
  Task     9 has      16014 integration points.
  Task    10 has      16022 integration points.
  Task    11 has      15972 integration points.
  Task    12 has      16036 integration points.
  Task    13 has      15990 integration points.
  Task    14 has      16030 integration points.
  Task    15 has      15991 integration points.
  Task    16 has      16016 integration points.
  Task    17 has      15965 integration points.
  Task    18 has      15965 integration points.
  Task    19 has      16018 integration points.
  Task    20 has      16036 integration points.
  Task    21 has      16019 integration points.
  Task    22 has      16024 integration points.
  Task    23 has      15997 integration points.
  Initializing partition tables, free-atom densities, potentials, etc. across the integration grid (initialize_grid_storage).
  | initialize_grid_storage: Actual outermost partition radius vs. multipole_radius_free
  | (-- VB: in principle, multipole_radius_free should be larger, hence this output)
  | Species        1: Confinement radius =              6.000000000000000 AA, multipole_radius_free =              6.058219618167466 AA.
  | Species        1: outer_partition_radius set to              6.058219618167466 AA .
  | Species        2: Confinement radius =              6.000000000000000 AA, multipole_radius_free =              6.037996416842453 AA.
  | Species        2: outer_partition_radius set to              6.037996416842453 AA .
  | The sparse table of interatomic distances needs       2897.83 kbyte instead of      3276.80 kbyte of memory.
  | Net number of integration points:   384136
  | of which are non-zero points    :   322119
  | Numerical average free-atom electrostatic potential    :    -17.07867859 eV
  Renormalizing the initial density to the exact electron count on the 3D integration grid.
  | Initial density: Formal number of electrons (from input files) :     456.0000000000
  | Integrated number of electrons on 3D grid     :     456.0000569256
  | Charge integration error                      :       0.0000569256
  | Normalization factor for density and gradient :       0.9999998752
  Renormalizing the free-atom superposition density to the exact electron count on the 3D integration grid.
  | Formal number of electrons (from input files) :     456.0000000000
  | Integrated number of electrons on 3D grid     :     456.0000569256
  | Charge integration error                      :       0.0000569256
  | Normalization factor for density and gradient :       0.9999998752
  Obtaining max. number of non-zero basis functions in each batch (get_n_compute_maxes).
  | Maximal number of non-zero basis functions:     1022 in task     0
  | Maximal number of non-zero basis functions:     1007 in task     1
  | Maximal number of non-zero basis functions:     1010 in task     2
  | Maximal number of non-zero basis functions:     1034 in task     3
  | Maximal number of non-zero basis functions:     1023 in task     4
  | Maximal number of non-zero basis functions:     1020 in task     5
  | Maximal number of non-zero basis functions:     1040 in task     6
  | Maximal number of non-zero basis functions:     1037 in task     7
  | Maximal number of non-zero basis functions:     1033 in task     8
  | Maximal number of non-zero basis functions:     1016 in task     9
  | Maximal number of non-zero basis functions:     1023 in task    10
  | Maximal number of non-zero basis functions:     1042 in task    11
  | Maximal number of non-zero basis functions:     1028 in task    12
  | Maximal number of non-zero basis functions:     1034 in task    13
  | Maximal number of non-zero basis functions:     1011 in task    14
  | Maximal number of non-zero basis functions:     1027 in task    15
  | Maximal number of non-zero basis functions:     1029 in task    16
  | Maximal number of non-zero basis functions:     1020 in task    17
  | Maximal number of non-zero basis functions:     1013 in task    18
  | Maximal number of non-zero basis functions:     1009 in task    19
  | Maximal number of non-zero basis functions:     1029 in task    20
  | Maximal number of non-zero basis functions:     1033 in task    21
  | Maximal number of non-zero basis functions:     1014 in task    22
  | Maximal number of non-zero basis functions:     1030 in task    23
  Allocating      279.232 MB for KS_eigenvector_complex
  Integrating Hamiltonian matrix: batch-based integration.
  Time summed over all CPUs for integration: real work       63.774 s, elapsed       64.960 s
  Integrating overlap matrix.
  Time summed over all CPUs for integration: real work       46.086 s, elapsed       46.976 s
  Decreasing sparse matrix size:
  | Tolerance:  0.1000E-12
  Hamiltonian matrix
  | Array has  1119532 nonzero elements out of  1293573 elements
  | Sparsity factor is 0.135
  Overlap matrix
  | Array has  1033187 nonzero elements out of  1293573 elements
  | Sparsity factor is 0.201
  New size of hamiltonian matrix:     1119604

  Updating Kohn-Sham eigenvalues and eigenvectors using ELSI and the (modified) LAPACK eigensolver.
  Singularity check in k-point 24, task 0 (analysis for other k-points/tasks may follow below):
  Overlap matrix is not singular
  | Lowest and highest eigenvalues :  0.5628E-03,  0.7263E+01
  Finished singularity check of overlap matrix
  | Time :     0.077 s
  Starting LAPACK eigensolver
  Finished Cholesky decomposition
  | Time :     0.018 s
  Finished transformation to standard eigenproblem
  | Time :     0.021 s
  Finished solving standard eigenproblem
  | Time :     0.073 s
  Finished back-transformation of eigenvectors
  | Time :     0.008 s

  Obtaining occupation numbers and chemical potential using ELSI.
  | Chemical potential (Fermi level):    -4.63371298 eV
  Writing Kohn-Sham eigenvalues.
  K-point:       1 at    0.000000    0.000000    0.000000 (in units of recip. lattice)

  State    Occupation    Eigenvalue [Ha]    Eigenvalue [eV]
      1       2.00000        -913.279498       -24851.59957
      2       2.00000        -913.279487       -24851.59928
      3       2.00000        -913.279487       -24851.59926
      4       2.00000        -913.279411       -24851.59721
      5       2.00000        -466.350322       -12690.03792
      6       2.00000        -466.350285       -12690.03693
      7       2.00000        -466.350247       -12690.03589
      8       2.00000        -466.350244       -12690.03579
      9       2.00000        -466.350243       -12690.03578
     10       2.00000        -466.350230       -12690.03542
     11       2.00000        -466.350218       -12690.03508
     12       2.00000        -466.350198       -12690.03456
     13       2.00000        -130.445082        -3549.59128
     14       2.00000        -130.445071        -3549.59099
     15       2.00000        -130.445071        -3549.59098
     16       2.00000        -130.444995        -3549.58890
     17       2.00000        -116.921490        -3181.59562
     18       2.00000        -116.921481        -3181.59538
     19       2.00000        -116.921479        -3181.59533
     20       2.00000        -116.921479        -3181.59531
     21       2.00000        -116.921470        -3181.59508
     22       2.00000        -116.921470        -3181.59508
     23       2.00000        -116.921428        -3181.59392
     24       2.00000        -116.921417        -3181.59363
     25       2.00000        -116.921416        -3181.59362
     26       2.00000        -116.921403        -3181.59324
     27       2.00000        -116.921394        -3181.59300
     28       2.00000        -116.921341        -3181.59155
     29       2.00000         -59.215536        -1611.33672
     30       2.00000         -59.215499        -1611.33570
     31       2.00000         -59.215460        -1611.33465
     32       2.00000         -59.215457        -1611.33456
     33       2.00000         -59.215456        -1611.33454
     34       2.00000         -59.215442        -1611.33417
     35       2.00000         -59.215430        -1611.33383
     36       2.00000         -59.215411        -1611.33331
     37       2.00000         -52.074052        -1417.00705
     38       2.00000         -52.074028        -1417.00639
     39       2.00000         -52.074015        -1417.00605
     40       2.00000         -52.073990        -1417.00536
     41       2.00000         -52.073979        -1417.00506
     42       2.00000         -52.073977        -1417.00500
     43       2.00000         -52.073972        -1417.00489
     44       2.00000         -52.073972        -1417.00488
     45       2.00000         -52.073959        -1417.00451
     46       2.00000         -52.073951        -1417.00430
     47       2.00000         -52.073949        -1417.00424
     48       2.00000         -52.073947        -1417.00420
     49       2.00000         -52.073946        -1417.00417
     50       2.00000         -52.073942        -1417.00405
     51       2.00000         -52.073934        -1417.00383
     52       2.00000         -52.073927        -1417.00364
     53       2.00000         -52.073921        -1417.00350
     54       2.00000         -52.073904        -1417.00302
     55       2.00000         -52.073902        -1417.00297
     56       2.00000         -52.073900        -1417.00291
     57       2.00000         -52.073900        -1417.00291
     58       2.00000         -52.073886        -1417.00254
     59       2.00000         -52.073874        -1417.00221
     60       2.00000         -52.073855        -1417.00168
     61       2.00000         -23.533276         -640.37302
     62       2.00000         -23.533264         -640.37270
     63       2.00000         -23.533264         -640.37269
     64       2.00000         -23.533183         -640.37049
     65       2.00000         -19.115070         -520.14752
     66       2.00000         -19.115059         -520.14721
     67       2.00000         -19.115056         -520.14714
     68       2.00000         -19.114983         -520.14514
     69       2.00000         -19.114975         -520.14493
     70       2.00000         -19.114972         -520.14484
     71       2.00000         -19.114970         -520.14480
     72       2.00000         -19.114888         -520.14257
     73       2.00000         -19.114450         -520.13064
     74       2.00000         -19.114439         -520.13035
     75       2.00000         -19.114439         -520.13034
     76       2.00000         -19.114360         -520.12820
     77       2.00000         -12.109877         -329.52652
     78       2.00000         -12.109865         -329.52619
     79       2.00000         -12.109864         -329.52617
     80       2.00000         -12.109841         -329.52555
     81       2.00000         -12.109829         -329.52522
     82       2.00000         -12.109829         -329.52521
     83       2.00000         -12.109782         -329.52393
     84       2.00000         -12.109747         -329.52297
     85       2.00000         -12.109498         -329.51621
     86       2.00000         -12.109487         -329.51591
     87       2.00000         -12.109486         -329.51587
     88       2.00000         -12.109442         -329.51468
     89       2.00000         -12.109431         -329.51439
     90       2.00000         -12.109430         -329.51437
     91       2.00000         -12.109406         -329.51371
     92       2.00000         -12.109359         -329.51243
     93       2.00000         -12.109351         -329.51220
     94       2.00000         -12.109348         -329.51214
     95       2.00000         -12.109348         -329.51213
     96       2.00000         -12.109269         -329.50997
     97       2.00000          -7.861847         -213.93175
     98       2.00000          -7.861803         -213.93055
     99       2.00000          -7.861760         -213.92936
    100       2.00000          -7.861759         -213.92934
    101       2.00000          -7.861755         -213.92925
    102       2.00000          -7.861741         -213.92884
    103       2.00000          -7.861726         -213.92845
    104       2.00000          -7.861705         -213.92787
    105       2.00000          -5.636252         -153.37022
    106       2.00000          -5.636216         -153.36923
    107       2.00000          -5.636170         -153.36800
    108       2.00000          -5.636165         -153.36785
    109       2.00000          -5.636159         -153.36768
    110       2.00000          -5.636147         -153.36737
    111       2.00000          -5.636128         -153.36686
    112       2.00000          -5.636109         -153.36632
    113       2.00000          -5.636005         -153.36349
    114       2.00000          -5.635955         -153.36214
    115       2.00000          -5.635905         -153.36077
    116       2.00000          -5.635901         -153.36067
    117       2.00000          -5.635891         -153.36040
    118       2.00000          -5.635870         -153.35982
    119       2.00000          -5.635830         -153.35875
    120       2.00000          -5.635819         -153.35844
    121       2.00000          -5.635339         -153.34539
    122       2.00000          -5.635295         -153.34419
    123       2.00000          -5.635259         -153.34319
    124       2.00000          -5.635254         -153.34306
    125       2.00000          -5.635252         -153.34301
    126       2.00000          -5.635239         -153.34265
    127       2.00000          -5.635228         -153.34237
    128       2.00000          -5.635206         -153.34177
    129       2.00000          -3.273931          -89.08819
    130       2.00000          -3.273915          -89.08775
    131       2.00000          -3.273913          -89.08770
    132       2.00000          -3.273795          -89.08450
    133       2.00000          -2.020219          -54.97295
    134       2.00000          -2.020206          -54.97260
    135       2.00000          -2.020169          -54.97159
    136       2.00000          -2.020034          -54.96793
    137       2.00000          -2.019211          -54.94554
    138       2.00000          -2.019209          -54.94548
    139       2.00000          -2.019165          -54.94427
    140       2.00000          -2.019034          -54.94071
    141       2.00000          -2.013029          -54.77732
    142       2.00000          -2.013022          -54.77713
    143       2.00000          -2.013019          -54.77703
    144       2.00000          -2.012915          -54.77420
    145       2.00000          -1.969258          -53.58623
    146       2.00000          -1.969190          -53.58438
    147       2.00000          -1.969149          -53.58328
    148       2.00000          -1.969123          -53.58255
    149       2.00000          -1.968199          -53.55741
    150       2.00000          -1.968155          -53.55622
    151       2.00000          -1.968112          -53.55505
    152       2.00000          -1.968093          -53.55452
    153       2.00000          -1.967760          -53.54548
    154       2.00000          -1.967739          -53.54491
    155       2.00000          -1.967697          -53.54375
    156       2.00000          -1.967682          -53.54334
    157       2.00000          -1.967628          -53.54187
    158       2.00000          -1.967599          -53.54109
    159       2.00000          -1.967552          -53.53982
    160       2.00000          -1.967543          -53.53956
    161       2.00000          -1.967341          -53.53408
    162       2.00000          -1.967309          -53.53319
    163       2.00000          -1.967297          -53.53288
    164       2.00000          -1.967279          -53.53240
    165       2.00000          -1.967260          -53.53188
    166       2.00000          -1.967254          -53.53169
    167       2.00000          -1.967228          -53.53100
    168       2.00000          -1.967228          -53.53098
    169       2.00000          -1.967206          -53.53040
    170       2.00000          -1.967202          -53.53029
    171       2.00000          -1.967189          -53.52994
    172       2.00000          -1.967179          -53.52967
    173       2.00000          -1.967157          -53.52907
    174       2.00000          -1.967150          -53.52887
    175       2.00000          -1.967144          -53.52871
    176       2.00000          -1.967128          -53.52828
    177       2.00000          -1.966675          -53.51596
    178       2.00000          -1.966648          -53.51521
    179       2.00000          -1.966612          -53.51423
    180       2.00000          -1.966601          -53.51393
    181       2.00000          -1.966323          -53.50636
    182       2.00000          -1.966301          -53.50578
    183       2.00000          -1.966261          -53.50468
    184       2.00000          -1.966256          -53.50454
    185       2.00000          -0.759457          -20.66588
    186       2.00000          -0.740448          -20.14861
    187       2.00000          -0.720364          -19.60211
    188       2.00000          -0.718700          -19.55683
    189       2.00000          -0.652674          -17.76017
    190       2.00000          -0.640744          -17.43553
    191       2.00000          -0.639416          -17.39940
    192       2.00000          -0.627526          -17.07586
    193       2.00000          -0.418354          -11.38399
    194       2.00000          -0.410569          -11.17215
    195       2.00000          -0.389510          -10.59911
    196       2.00000          -0.376405          -10.24249
    197       2.00000          -0.370707          -10.08745
    198       2.00000          -0.369250          -10.04780
    199       2.00000          -0.366428           -9.97100
    200       2.00000          -0.366074           -9.96139
    201       2.00000          -0.364565           -9.92032
    202       2.00000          -0.362840           -9.87338
    203       2.00000          -0.361324           -9.83214
    204       2.00000          -0.351691           -9.57000
    205       2.00000          -0.342019           -9.30680
    206       2.00000          -0.330907           -9.00443
    207       2.00000          -0.324686           -8.83514
    208       2.00000          -0.316709           -8.61810
    209       2.00000          -0.316479           -8.61183
    210       2.00000          -0.306005           -8.32683
    211       2.00000          -0.288621           -7.85379
    212       2.00000          -0.286400           -7.79333
    213       2.00000          -0.285113           -7.75832
    214       2.00000          -0.280013           -7.61954
    215       2.00000          -0.279147           -7.59597
    216       2.00000          -0.277228           -7.54375
    217       2.00000          -0.276167           -7.51489
    218       2.00000          -0.275571           -7.49867
    219       2.00000          -0.273692           -7.44754
    220       2.00000          -0.270314           -7.35561
    221       2.00000          -0.265430           -7.22271
    222       2.00000          -0.263825           -7.17904
    223       2.00000          -0.263451           -7.16887
    224       2.00000          -0.257906           -7.01798
    225       2.00000          -0.224141           -6.09918
    226       2.00000          -0.215122           -5.85376
    227       2.00000          -0.212893           -5.79312
    228       0.00000          -0.164325           -4.47152
    229       0.00000          -0.152660           -4.15408
    230       0.00000          -0.135199           -3.67896
    231       0.00000          -0.129884           -3.53432
    232       0.00000          -0.128546           -3.49792
    233       0.00000          -0.125828           -3.42396
    234       0.00000          -0.115557           -3.14446
    235       0.00000          -0.114964           -3.12834
    236       0.00000          -0.082130           -2.23486
    237       0.00000          -0.037352           -1.01640
    238       0.00000          -0.030127           -0.81980
    239       0.00000          -0.002396           -0.06521
    240       0.00000           0.022233            0.60498
    241       0.00000           0.025845            0.70328
    242       0.00000           0.027378            0.74498
    243       0.00000           0.057642            1.56853
    244       0.00000           0.089400            2.43270
    245       0.00000           0.102122            2.77888
    246       0.00000           0.111457            3.03291
    247       0.00000           0.118619            3.22778
    248       0.00000           0.122841            3.34268
    249       0.00000           0.124966            3.40049
    250       0.00000           0.125588            3.41741
    251       0.00000           0.137649            3.74563
    252       0.00000           0.151807            4.13089
    253       0.00000           0.160084            4.35611
    254       0.00000           0.170851            4.64910
    255       0.00000           0.176845            4.81220
    256       0.00000           0.189523            5.15718
    257       0.00000           0.191957            5.22342
    258       0.00000           0.198823            5.41024
    259       0.00000           0.220186            5.99157
    260       0.00000           0.231448            6.29802
    261       0.00000           0.247574            6.73683
    262       0.00000           0.257881            7.01731
    263       0.00000           0.267250            7.27223
    264       0.00000           0.280276            7.62670
    265       0.00000           0.281171            7.65105
[...]
  |                x                y                z                |
  |                                                                   |
  |  x        -0.00018312       0.00000364       0.00002884           |
  |  y         0.00000364       0.00015133       0.00001197           |
  |  z         0.00002884       0.00001197      -0.00002321           |
  |                                                                   |
  |  Pressure:       0.00001833   [eV/A**3]                           |
  |                                                                   |
  +-------------------------------------------------------------------+

 * Warning: Stress tensor is anisotropic. Be aware that pressure is an isotropic quantity.


  Leaving Libmbd.

  Timings for VdW correction (Tkatchenko-Scheffler 2009 or later):
  | CPU time:       28.185 s, Wall clock time:       28.188 s.
  Removing unitary transformations (pure translations, rotations) from forces on atoms.
  Atomic forces before filtering:
  | Net force on center of mass :  -0.166487E-04 -0.141901E-04 -0.315456E-04 eV/A
  Atomic forces after filtering:
  | Net force on center of mass :   0.696899E-18 -0.348449E-18  0.104535E-17 eV/A

  Energy and forces in a compact form:
  | Total energy uncorrected      :         -0.108791111505932E+07 eV
  | Total energy corrected        :         -0.108791111620821E+07 eV  <-- do not rely on this value for anything but (periodic) metals
  | Electronic free energy        :         -0.108791111735710E+07 eV
  Total atomic forces (unitary forces cleaned) [eV/Ang]:
  |    1          0.195254783470163E-03         -0.370860338261001E-02          0.267527582838472E-02
  |    2          0.111480167889387E-02          0.125239793781191E-03         -0.163765707275216E-02
  |    3         -0.245965116026239E-02         -0.247410008563867E-02          0.214723968966158E-02
  |    4          0.540516338599860E-03         -0.334879229224928E-03         -0.157345779299444E-02
  |    5          0.794530352947513E-03         -0.523608482486139E-03         -0.157699771464618E-03
  |    6          0.209988510201038E-02          0.409306783139180E-02         -0.554868184768881E-03
  |    7         -0.130057343665850E-02          0.126681052179758E-02         -0.185552462238168E-04
  |    8         -0.294847922193808E-02          0.397825914558424E-03          0.119555300300728E-02
  |    9         -0.182243461310867E-02         -0.579631721277442E-04         -0.287201385986388E-05
  |   10          0.332326259579921E-03         -0.617452364018074E-03         -0.810650195164674E-03
  |   11          0.479589618574390E-03         -0.551858901425565E-03          0.609392569085754E-03
  |   12          0.297423429789154E-02          0.238552155600214E-02         -0.187170081291088E-02

  ------------------------------------ 
  Start decomposition of the XC Energy 
  ------------------------------------ 
  X and C from original XC functional choice 
  Hartree-Fock Energy :          0.000000000 Ha              0.000000000 eV
  X Energy            :      -1261.088139544 Ha         -34315.954253533 eV
  C Energy            :        -23.237019822 Ha           -632.311481014 eV
  Total XC Energy     :      -1284.325159367 Ha         -34948.265734547 eV
  ------------------------------------ 
  LDA X and C from self-consistent density 
  X Energy LDA        :      -1197.518186402 Ha         -32586.127815922 eV
  C Energy LDA        :        -42.068244826 Ha          -1144.735185188 eV
  ------------------------------------ 
  End decomposition of the XC Energy 
  ------------------------------------ 

------------------------------------------------------------
  Relaxation / MD: End force evaluation.       :  max(cpu_time)    wall_clock(cpu1)
  | Time for this force evaluation             :      657.698 s         658.438 s

------------------------------------------------------------
  Geometry optimization: Attempting to predict improved coordinates.

  +-------------------------------------------------------------------+
  | Generalized derivatives on lattice vectors [eV/A]                 |
  +-------------------------------------------------------------------+
  |lattice_vector      -0.00818859       0.00016285       0.00128961  |
  |lattice_vector       0.00015985       0.00664254       0.00052535  |
  |lattice_vector       0.00100354       0.00041650      -0.00080782  |
  +-------------------------------------------------------------------+
  | Forces on lattice vectors cleaned from atomic contributions [eV/A]|
  +-------------------------------------------------------------------+
  |lattice_vector       0.00818859      -0.00016285      -0.00128961  |
  |lattice_vector      -0.00015985      -0.00664254      -0.00052535  |
  |lattice_vector      -0.00100354      -0.00041650       0.00080782  |
  +-------------------------------------------------------------------+
  Symmetrized total atomic cartesian forces [eV/Ang]:
  |   1     0.1952547835E-03    -0.3708603383E-02     0.2675275828E-02
  |   2     0.1114801679E-02     0.1252397938E-03    -0.1637657073E-02
  |   3    -0.2459651160E-02    -0.2474100086E-02     0.2147239690E-02
  |   4     0.5405163386E-03    -0.3348792292E-03    -0.1573457793E-02
  |   5     0.7945303529E-03    -0.5236084825E-03    -0.1576997715E-03
  |   6     0.2099885102E-02     0.4093067831E-02    -0.5548681848E-03
  |   7    -0.1300573437E-02     0.1266810522E-02    -0.1855524622E-04
  |   8    -0.2948479222E-02     0.3978259146E-03     0.1195553003E-02
  |   9    -0.1822434613E-02    -0.5796317213E-04    -0.2872013860E-05
  |  10     0.3323262596E-03    -0.6174523640E-03    -0.8106501952E-03
  |  11     0.4795896186E-03    -0.5518589014E-03     0.6093925691E-03
  |  12     0.2974234298E-02     0.2385521556E-02    -0.1871700813E-02
  +-------------------------------------------------------------------+
  | Symmetrized forces on lattice vectors cleaned from symmetrized
  | atomic contributions [eV/A]|
  +-------------------------------------------------------------------+
  |lattice_vector       0.00818859       0.00000000       0.00000000  |
  |lattice_vector       0.00000000      -0.00664254       0.00000000  |
  |lattice_vector       0.00000000       0.00000000       0.00080782  |
  +-------------------------------------------------------------------+
  Removing unitary transformations (pure translations, rotations) from forces on atoms.
  Atomic forces before filtering:
  | Net force on center of mass :   0.139380E-17 -0.696899E-18  0.104535E-17 eV/A
  Atomic forces after filtering:
  | Net force on center of mass :   0.104535E-17 -0.696899E-18  0.696899E-18 eV/A
  Net remaining forces (excluding translations, rotations) in present geometry:
  || Forces on atoms   || =   0.409307E-02 eV/A.
  || Forces on lattice || =   0.818859E-02 eV/A^3.
  Maximum force component is  0.818859E-02 eV/A.
  Present geometry is converged.

  Symmetry-reduced parameters:
  | atomic   1          0.502314821777397E+00
  | atomic   2          0.241488897835258E-02
  | atomic   3          0.214502147820501E-02
  | atomic   4          0.233106802612631E-02
  | atomic   5          0.236552538043672E-02
  | atomic   6          0.502656828950986E+00
  | atomic   7          0.251296445125649E-02
  | atomic   8          0.502382462189804E+00
  | atomic   9          0.215234275926357E-02
  | atomic  10          0.502448366121960E+00
  | atomic  11          0.502387635956319E+00
  | atomic  12          0.502634533018796E+00
  | atomic  13          0.614506743216719E+00
  | atomic  14          0.120782192301915E+00
  | atomic  15          0.405704889876821E+00
  | atomic  16          0.890254648263390E+00
  | atomic  17          0.884003450485566E+00
  | atomic  18          0.905533027675164E+00
  | atomic  19          0.114510222642719E+00
  | atomic  20          0.384051973386823E+00
  | atomic  21          0.599285173319600E+00
  | atomic  22          0.390355376807908E+00
  | atomic  23          0.620780645701237E+00
  | atomic  24          0.990844562885001E-01
  | atomic  25          0.390338064439227E+00
  | atomic  26          0.884085551199149E+00
  | atomic  27          0.599294348825031E+00
  | atomic  28          0.114480887813491E+00
  | atomic  29          0.120762134899734E+00
  | atomic  30          0.990940678532156E-01
  | atomic  31          0.890283573408682E+00
  | atomic  32          0.620764356740860E+00
  | atomic  33          0.405706819480781E+00
  | atomic  34          0.614488397976812E+00
  | atomic  35          0.384044322252836E+00
  | atomic  36          0.905533636201915E+00
  | lattice  1          0.584439154220653E+01
  | lattice  2          0.595419582250167E+01
  | lattice  3          0.751037996820867E+01
  Symmetry-reduced forces:
  | atomic   1          0.114114540508839E-02
  | atomic   2         -0.220817507680521E-01
  | atomic   3          0.200923379909335E-01
  | atomic   4          0.651533750336498E-02
  | atomic   5          0.745702256942939E-03
  | atomic   6         -0.122994268739931E-01
  | atomic   7         -0.143751644378160E-01
  | atomic   8         -0.147312763943608E-01
  | atomic   9          0.161265859521769E-01
  | atomic  10          0.315898911773746E-02
  | atomic  11         -0.199393650769365E-02
  | atomic  12         -0.118172658893272E-01
  | atomic  13          0.464354647479281E-02
  | atomic  14         -0.311766743904541E-02
  | atomic  15         -0.118438520459895E-02
  | atomic  16          0.122725507297950E-01
  | atomic  17          0.243709273828890E-01
  | atomic  18         -0.416727089988451E-02
  | atomic  19         -0.760106039322539E-02
  | atomic  20          0.754283791678833E-02
  | atomic  21         -0.139356949544534E-03
  | atomic  22         -0.172320670270666E-01
  | atomic  23          0.236873339854667E-02
  | atomic  24          0.897905732471760E-02
  | atomic  25         -0.106510214390768E-01
  | atomic  26         -0.345124077341959E-03
  | atomic  27         -0.215699153615399E-04
  | atomic  28          0.194224478074202E-02
  | atomic  29         -0.367643228643020E-02
  | atomic  30         -0.608829098698922E-02
  | atomic  31          0.280290951052622E-02
  | atomic  32         -0.328587596547846E-02
  | atomic  33          0.457676974363687E-02
  | atomic  34          0.173825897751379E-01
  | atomic  35          0.142038624832357E-01
  | atomic  36         -0.140571842917658E-01
  | lattice  1          0.818859344201956E-02
  | lattice  2         -0.664253845946137E-02
  | lattice  3          0.807816719183696E-03
------------------------------------------------------------
  Final atomic structure:
                         x [A]             y [A]             z [A]
  lattice_vector         5.84439154        0.00000000        0.00000000
  lattice_vector         0.00000000        5.95419582        0.00000000
  lattice_vector         0.00000000        0.00000000        7.51037997

            atom        -2.90866705        0.01437872        0.01610993  Pd
            atom         0.01362367        0.01408480       -3.73523619  Pd
            atom         0.01468675       -2.96291226        0.01616491  Pd
            atom        -2.90788656       -2.96288146       -3.73540364  Pd
            atom        -2.25297353        0.71916082        3.04699788  Se
            atom        -0.64139481       -0.69066617       -0.70948286  Se
            atom         0.66924258        2.28672066       -3.00952061  Se
            atom         2.28138966       -2.25794630        0.74416192  Se
            atom         2.28128848       -0.69017733       -3.00945170  Se
            atom         0.66907113        0.71904140        0.74423410  Se
            atom        -0.64122576       -2.25804328        3.04701237  Se
            atom        -2.25308075        2.28667510       -0.70947829  Se

  Fractional coordinates:
                         L1                L2                L3
       atom_frac        -0.49768518        0.00241489        0.00214502  Pd
       atom_frac         0.00233107        0.00236553       -0.49734317  Pd
       atom_frac         0.00251296       -0.49761754        0.00215234  Pd
       atom_frac        -0.49755163       -0.49761236       -0.49736547  Pd
       atom_frac        -0.38549326        0.12078219        0.40570489  Se
       atom_frac        -0.10974535       -0.11599655       -0.09446697  Se
       atom_frac         0.11451022        0.38405197       -0.40071483  Se
       atom_frac         0.39035538       -0.37921935        0.09908446  Se
       atom_frac         0.39033806       -0.11591445       -0.40070565  Se
       atom_frac         0.11448089        0.12076213        0.09909407  Se
       atom_frac        -0.10971643       -0.37923564        0.40570682  Se
       atom_frac        -0.38551160        0.38404432       -0.09446636  Se
------------------------------------------------------------

------------------------------------------------------------------------------
  Final output of selected total energy values:

  The following output summarizes some interesting total energy values
  at the end of a run (AFTER all relaxation, molecular dynamics, etc.).

  | Total energy of the DFT / Hartree-Fock s.c.f. calculation      :       -1087911.115059320 eV
  | Final zero-broadening corrected energy (caution - metals only) :       -1087911.116208208 eV
  | For reference only, the value of 1 Hartree used in FHI-aims is :             27.211384500 eV
  | For reference only, the overall average (free atom contribution
  | + realspace contribution) of the electrostatic potential after
  | s.c.f. convergence is                                          :            -16.953413918 eV

  Before relying on these values, please be sure to understand exactly which
  total energy value is referred to by a given number. Different objects may
  all carry the same name 'total energy'. Definitions:

  Total energy of the DFT / Hartree-Fock s.c.f. calculation:
  | Note that this energy does not include ANY quantities calculated after the
  | s.c.f. cycle, in particular not ANY RPA, MP2, etc. many-body perturbation terms.

  Final zero-broadening corrected energy:
  | For metallic systems only, a broadening of the occupation numbers at the Fermi
  | level can be extrapolated back to zero broadening by an electron-gas inspired
  | formula. For all systems that are not real metals, this value can be
  | meaningless and should be avoided.

------------------------------------------------------------------------------
  Methods described in the following list of references were used in this FHI-aims run.
  If you publish the results, please make sure to cite these reference if they apply.
  FHI-aims is an academic code, and for our developers (often, Ph.D. students
  and postdocs), scientific credit in the community is essential.
  Thank you for helping us!

  For any use of FHI-aims, please cite:

    Volker Blum, Ralf Gehrke, Felix Hanke, Paula Havu, Ville Havu,
    Xinguo Ren, Karsten Reuter, and Matthias Scheffler
    'Ab initio molecular simulations with numeric atom-centered orbitals'
    Computer Physics Communications 180, 2175-2196 (2009)
    http://dx.doi.org/10.1016/j.cpc.2009.06.022


  For the analytical stress tensor used in your run, please cite:

    Franz Knuth, Christian Carbogno, Viktor Atalla, Volker Blum, Matthias Scheffler
    'All-electron formalism for total energy strain derivatives and
    stress tensor components for numeric atom-centered orbitals'
    Computer Physics Communications 190, 33-50 (2015).
    http://dx.doi.org/10.1016/j.cpc.2015.01.003


  The provided symmetry information was generated with SPGlib:

    Atsushi Togo, Yusuke Seto, Dimitar Pashov
    SPGlib 1.7.3 obtained from http://spglib.sourceforge.net
    Copyright (C) 2008 Atsushi Togo


  The ELSI infrastructure was used in your run to solve the Kohn-Sham electronic structure.
  Please check out http://elsi-interchange.org to learn more.
  If scalability is important for your project, please acknowledge ELSI by citing:

    V. W-z. Yu, F. Corsetti, A. Garcia, W. P. Huhn, M. Jacquelin, W. Jia,
    B. Lange, L. Lin, J. Lu, W. Mi, A. Seifitokaldani, A. Vazquez-Mayagoitia,
    C. Yang, H. Yang, and V. Blum
    'ELSI: A unified software interface for Kohn-Sham electronic structure solvers'
    Computer Physics Communications 222, 267-285 (2018).
    http://dx.doi.org/10.1016/j.cpc.2017.09.007


  For the real-space grid partitioning and parallelization used in this calculation, please cite:

    Ville Havu, Volker Blum, Paula Havu, and Matthias Scheffler,
    'Efficient O(N) integration for all-electron electronic structure calculation'
    'using numerically tabulated basis functions'
    Journal of Computational Physics 228, 8367-8379 (2009).
    http://dx.doi.org/10.1016/j.jcp.2009.08.008

  Of course, there are many other important community references, e.g., those cited in the
  above references. Our list is limited to references that describe implementations in the
  FHI-aims code. The reason is purely practical (length of this list) - please credit others as well.

------------------------------------------------------------
          Leaving FHI-aims.
          Date     :  20200420, Time     :  220126.709

          Computational steps:
          | Number of self-consistency cycles          :          111
          | Number of SCF (re)initializations          :            5
          | Number of relaxation steps                 :            4

          Detailed time accounting                     :  max(cpu_time)    wall_clock(cpu1)
          | Total time                                 :     4474.756 s        4476.838 s
          | Preparation time                           :        0.555 s           0.589 s
          | Boundary condition initalization           :        0.799 s           0.799 s
          | Grid partitioning                          :        1.812 s           1.813 s
          | Preloading free-atom quantities on grid    :        4.703 s           4.704 s
          | Free-atom superposition energy             :        0.716 s           0.716 s
          | Total time for integrations                :      312.345 s         312.357 s
          | Total time for solution of K.-S. equations :     2146.498 s        2148.672 s
          | Total time for EV reorthonormalization     :       25.336 s          24.927 s
          | Total time for density & force components  :     1500.275 s        1500.386 s
          | Total time for mixing & preconditioning    :       82.633 s          82.688 s
          | Total time for Hartree multipole update    :        0.586 s           0.560 s
          | Total time for Hartree multipole sum       :      248.612 s         248.629 s
          | Total time for total energy evaluation     :        3.201 s           3.247 s
          | Total time for scaled ZORA corrections     :        0.000 s           0.000 s
          | Total time for vdW correction              :      141.684 s         141.708 s

          Partial memory accounting:
          | Residual value for overall tracked memory usage across tasks:     0.000000 MB (should be 0.000000 MB)
          | Peak values for overall tracked memory usage:
          |   Minimum:      605.092 MB (on task 21 after allocating d_wave)
          |   Maximum:      610.170 MB (on task  7 after allocating d_wave)
          |   Average:      607.717 MB
          | Largest tracked array allocation:
          |   Minimum:      279.232 MB (KS_eigenvector_complex on task  0)
          |   Maximum:      281.331 MB (KS_eigenvector_complex on task  1)
          |   Average:      280.282 MB
          Note:  These values currently only include a subset of arrays which are explicitly tracked.
          The "true" memory usage will be greater.

          Have a nice day.
------------------------------------------------------------
