------------------------------------------------------------
          Invoking FHI-aims ...

          When using FHI-aims, please cite the following reference:

            Volker Blum, Ralf Gehrke, Felix Hanke, Paula Havu,
            Ville Havu, Xinguo Ren, Karsten Reuter, and Matthias Scheffler,
            'Ab Initio Molecular Simulations with Numeric Atom-Centered Orbitals',
            Computer Physics Communications 180, 2175-2196 (2009)

          In addition, many other developments in FHI-aims are likely important for
          your particular application. A partial list of references is given at the end of
          this file. Thank you for giving credit to the authors of these developments.

          For any questions about FHI-aims, please visit our slack channel at

            https://fhi-aims.slack.com

          and our main development and support site at

            https://aims-git.rz-berlin.mpg.de .

          The latter site, in particular, has a wiki to collect information, as well
          as an issue tracker to log discussions, suggest improvements, and report issues
          or bugs. https://aims-git.rz-berlin.mpg.de is also the main development site
          of the project and all new and updated code versions can be obtained there.
          Please send an email to aims-coordinators@fhi-berlin.mpg.de and we will add
          you to these sites. They are for you and everyone is welcome there.

------------------------------------------------------------



  Date     :  20201221, Time     :  165935.363
  Time zero on CPU 1             :   0.432920000000000E-01  s.
  Internal wall clock time zero  :           377801975.363  s.

  FHI-aims created a unique identifier for this run for later identification
  aims_uuid : 9E101B51-75EF-4A0D-A9F1-A7BB3DAF9E48

  Build configuration of the current instance of FHI-aims
  -------------------------------------------------------
  FHI-aims version      : 201122
  Commit number         : 9f287233b
  CMake host system     : Linux-4.19.128-microsoft-standard
  CMake version         : 3.19.1
  Fortran compiler      : /home/rkempt/miniconda3/envs/aims-env/bin/mpifort (GNU) version 7.3.0
  Fortran compiler flags: -O2 -ffree-line-length-none
  C compiler            : /usr/bin/gcc (GNU) version 9.3.0
  C compiler flags      : -O2 -funroll-loops -std=gnu99
  Using MPI
  Using LibXC
  Using i-PI
  Using RLSY
  Linking against: /home/rkempt/miniconda3/envs/aims-env/lib/libmkl_intel_lp64.so
                   /home/rkempt/miniconda3/envs/aims-env/lib/libmkl_sequential.so
                   /home/rkempt/miniconda3/envs/aims-env/lib/libmkl_core.so

  Using        4 parallel tasks.
  Task        0 on host DESKTOP-VF3RMOI reporting.
  Task        1 on host DESKTOP-VF3RMOI reporting.
  Task        2 on host DESKTOP-VF3RMOI reporting.
  Task        3 on host DESKTOP-VF3RMOI reporting.

  Performing system and environment tests:
  *** Environment variable OMP_NUM_THREADS is not set
  *** For performance reasons you might want to set it to 1
  | Checking for ScaLAPACK...
  | No ScaLAPACK compiled in.

  Obtaining array dimensions for all initial allocations:
  
  -----------------------------------------------------------------------
  Parsing control.in (first pass over file, find array dimensions only).
  The contents of control.in will be repeated verbatim below
  unless switched off by setting 'verbatim_writeout .false.' .
  in the first line of control.in .
  -----------------------------------------------------------------------
  
  #===============================================================================
  # FHI-aims file: control.in
  # Created using the Atomic Simulation Environment (ASE)
  # Mon Dec 21 16:51:22 2020
  #===============================================================================
  xc                                 pbe
  # include_spin_orbit
  ## Common choices of dispersion methods:
  # 	 vdw_correction_hirshfeld
  # 	 many_body_dispersion
  # 	 many_body_dispersion_nl
  relativistic                       atomic_zora scalar
  spin                               none
  k_grid 	 	 16 16 16
  check_stacksize .false.
  ### SCF settings
  adjust_scf 	 always 	 3
  sc_iter_limit 	 100
  # frozen_core_scf 	 .true.
  # charge_mix_param 	 0.02
  # occupation_type 	 gaussian 	 0.1
  # sc_accuracy_rho 	 1E-6 	 	 # electron density convergence
  # elsi_restart 	 read_and_write 	 1000
  #===============================================================================
  
  ################################################################################
  #
  #  FHI-aims code project
  #  VB, Fritz-Haber Institut, 2009
  #
  #  Suggested "light" defaults for Si atom (to be pasted into control.in file)
  #  Be sure to double-check any results obtained with these settings for post-processing,
  #  e.g., with the "tight" defaults and larger basis sets.
  #
  ################################################################################
    species        Si
  #     global species definitions
      nucleus             14
      mass                28.0855
  #
      l_hartree           4
  #
      cut_pot             3.5          1.5  1.0
      basis_dep_cutoff    1e-4
  #
      radial_base         42 5.0
      radial_multiplier   1
      angular_grids       specified
        division   0.5866   50
        division   0.9616  110
        division   1.2249  194
        division   1.3795  302
  #      division   1.4810  434
  #      division   1.5529  590
  #      division   1.6284  770
  #      division   1.7077  974
  #      division   2.4068 1202
  #      outer_grid   974
        outer_grid 302
  ################################################################################
  #
  #  Definition of "minimal" basis
  #
  ################################################################################
  #     valence basis states
      valence      3  s   2.
      valence      3  p   2.
  #     ion occupancy
      ion_occ      3  s   1.
      ion_occ      3  p   1.
  ################################################################################
  #
  #  Suggested additional basis functions. For production calculations,
  #  uncomment them one after another (the most important basis functions are
  #  listed first).
  #
  #  Constructed for dimers: 1.75 A, 2.0 A, 2.25 A, 2.75 A, 3.75 A
  #
  ################################################################################
  #  "First tier" - improvements: -571.96 meV to -37.03 meV
       hydro 3 d 4.2
       hydro 2 p 1.4
       hydro 4 f 6.2
       ionic 3 s auto
  #  "Second tier" - improvements: -16.76 meV to -3.03 meV
  #     hydro 3 d 9
  #     hydro 5 g 9.4
  #     hydro 4 p 4
  #     hydro 1 s 0.65
  #  "Third tier" - improvements: -3.89 meV to -0.60 meV
  #     ionic 3 d auto
  #     hydro 3 s 2.6
  #     hydro 4 f 8.4
  #     hydro 3 d 3.4
  #     hydro 3 p 7.8
  #  "Fourth tier" - improvements: -0.33 meV to -0.11 meV
  #     hydro 2 p 1.6
  #     hydro 5 g 10.8
  #     hydro 5 f 11.2
  #     hydro 3 d 1
  #     hydro 4 s 4.5
  #  Further basis functions that fell out of the optimization - noise
  #  level... < -0.08 meV
  #     hydro 4 d 6.6
  #     hydro 5 g 16.4
  #     hydro 4 d 9
  
  -----------------------------------------------------------------------
  Completed first pass over input file control.in .
  -----------------------------------------------------------------------
  
  
  -----------------------------------------------------------------------
  Parsing geometry.in (first pass over file, find array dimensions only).
  The contents of geometry.in will be repeated verbatim below
  unless switched off by setting 'verbatim_writeout .false.' .
  in the first line of geometry.in .
  -----------------------------------------------------------------------
  
  #=======================================================
  # FHI-aims file: ./geometry.in
  # Created using the Atomic Simulation Environment (ASE)
  # Tue Nov 10 17:29:52 2020
  #=======================================================
  lattice_vector 0.0000000000000000 2.7343639799999999 2.7343639799999999
  lattice_vector 2.7343639799999999 0.0000000000000000 2.7343639799999999
  lattice_vector 2.7343639799999999 2.7343639799999999 0.0000000000000000
  atom_frac 0.0000000000000000 0.0000000000000000 -0.0000000000000000 Si
  atom_frac 0.2500000000000000 0.2500000000000000 0.2500000000000000 Si
  
  -----------------------------------------------------------------------
  Completed first pass over input file geometry.in .
  -----------------------------------------------------------------------
  

  Basic array size parameters:
  | Number of species                 :        1
  | Number of atoms                   :        2
  | Number of lattice vectors         :        3
  | Max. basis fn. angular momentum   :        3
  | Max. atomic/ionic basis occupied n:        3
  | Max. number of basis fn. types    :        3
  | Max. radial fns per species/type  :        5
  | Max. logarithmic grid size        :     1346
  | Max. radial integration grid size :       42
  | Max. angular integration grid size:      302
  | Max. angular grid division number :        8
  | Radial grid for Hartree potential :     1346
  | Number of spin channels           :        1

------------------------------------------------------------
          Reading file control.in.
------------------------------------------------------------
  XC: Using PBE gradient-corrected functionals.
  Scalar relativistic treatment of kinetic energy: on-site free-atom approximation to ZORA.
  Spin treatment: No spin polarisation.
  Found k-point grid:        16        16        16
  S.C.F. convergence parameters will be adjusted in iteration number     3 of each new s.c.f. cycle.
  Maximum number of s.-c. iterations  :   100

  Reading configuration options for species Si                  .
  | Found nuclear charge :  14.0000
  | Found atomic mass :    28.085500000000000      amu
  | Found l_max for Hartree potential  :   4
  | Found cutoff potl. onset [A], width [A], scale factor :    3.50000    1.50000    1.00000
  | Threshold for basis-dependent cutoff potential is   0.100000E-03
  | Found data for basic radial integration grid :    42 points, outermost radius =    5.000 A
  | Found multiplier for basic radial grid :   1
  | Found angular grid specification: user-specified.
  | Specified grid contains     5 separate shells.
  | Check grid settings after all constraints further below.
  | Found free-atom valence shell :  3 s   2.000
  | Found free-atom valence shell :  3 p   2.000
  | Found free-ion valence shell :  3 s   1.000
  | Found free-ion valence shell :  3 p   1.000
  | Found hydrogenic basis function :  3 d   4.200
  | Found hydrogenic basis function :  2 p   1.400
  | Found hydrogenic basis function :  4 f   6.200
  | Found ionic basis function :  3 s , default cutoff radius.
  Species Si                  : Missing cutoff potential type.
  Defaulting to exp(1/x)/(1-x)^2 type cutoff potential.
  Species Si: No 'logarithmic' tag. Using default grid for free atom:
  | Default logarithmic grid data [bohr] : 0.1000E-03 0.1000E+03 0.1012E+01
  | Will include ionic basis functions of  2.0-fold positive Si                   ion.
  Species Si: On-site basis accuracy parameter (for Gram-Schmidt orthonormalisation) not specified.
  Using default value basis_acc =  0.1000000E-03.
  Species Si                  : Using default innermost maximum threshold i_radial=  2 for radial functions.
  Species Si                  : Default cutoff onset for free atom density etc. : 0.35000000E+01 AA.
  Species Si                  : Basic radial grid will be enhanced according to radial_multiplier =   1, to contain    42 grid points.

  Finished reading input file 'control.in'.

------------------------------------------------------------


------------------------------------------------------------
          Reading geometry description geometry.in.
------------------------------------------------------------
  | The smallest distance between any two atoms is         2.36802867 AA.
  | The first atom of this pair is atom number                      1 .
  | The second atom of this pair is atom number                     2 .
  | Wigner-Seitz cell of the first atom image           0     1     0 .
  | (The Wigner-Seitz cell of the second atom is 0 0 0  by definition.)

  Symmetry information by spglib:
  | Precision set to  0.1E-04
  | Number of Operations  : 48
  | Space group           : 227
  | International         : Fd-3m
  | Schoenflies           : Oh^7
  Input structure read successfully.
  The structure contains        2 atoms,  and a total of         28.000 electrons.

  Input geometry:
  | Unit cell:
  |        0.00000000        2.73436398        2.73436398
  |        2.73436398        0.00000000        2.73436398
  |        2.73436398        2.73436398        0.00000000
  | Atomic structure:
  |       Atom                x [A]            y [A]            z [A]
  |    1: Species Si            0.00000000        0.00000000        0.00000000
  |    2: Species Si            1.36718199        1.36718199        1.36718199

  Lattice parameters for 3D lattice (in Angstroms) :     3.866975    3.866975    3.866975
  Angle(s) between unit vectors (in degrees)       :    60.000000   60.000000   60.000000


  Quantities derived from the lattice vectors:
  | Reciprocal lattice vector 1: -1.148930  1.148930  1.148930
  | Reciprocal lattice vector 2:  1.148930 -1.148930  1.148930
  | Reciprocal lattice vector 3:  1.148930  1.148930 -1.148930
  | Unit cell volume                               :   0.408883E+02  A^3

  Fractional coordinates:
                         L1                L2                L3
       atom_frac         0.00000000        0.00000000        0.00000000  Si
       atom_frac         0.25000000        0.25000000        0.25000000  Si


  Finished reading input file 'control.in'.


------------------------------------------------------------
          Reading geometry description geometry.in.
------------------------------------------------------------

  Consistency checks for the contents of control.in are next.

  MPI_IN_PLACE appears to work with this MPI implementation.
  | Keeping use_mpi_in_place .true. (see manual).
  Target number of points in a grid batch is not set. Defaulting to  100
  Method for grid partitioning is not set. Defaulting to parallel hash+maxmin partitioning.
  Batch size limit is not set. Defaulting to    200
  By default, will store active basis functions for each batch.
  If in need of memory, prune_basis_once .false. can be used to disable this option.
  communication_type for Hartree potential was not specified.
  Defaulting to calc_hartree .
  Defaulting to Pulay charge density mixer.
  Pulay mixer: Number of relevant iterations not set.
  Defaulting to    8 iterations.
  Pulay mixer: Number of initial linear mixing iterations not set.
  Defaulting to    0 iterations.
  Work space size for distributed Hartree potential not set.
  Defaulting to   0.200000E+03 MB.
  Mixing parameter for charge density mixing has not been set.
  Using default: charge_mix_param =     0.0500.
  The mixing parameter will be adjusted in iteration number     3 of each s.c.f. cycle (i.e., each geometry step).
  Algorithm-dependent basis array size parameters:
  | n_max_pulay                         :        8
  Presetting      1001 iterations before the initial mixing cycle
  is restarted anyway using the sc_init_iter criterion / keyword.
  Presetting a factor      1.000 between actual scf density residual
  and density convergence criterion sc_accuracy_rho below which sc_init_iter
  takes no effect.
 * No s.c.f. convergence criteria (sc_accuracy_*) were provided in control.in.
 * The run will proceed with a reasonable default guess, but please check whether.
 * the s.c.f. cycles seem to take too much or too little time.
  Calculation of forces was not defined in control.in. No forces will be calculated.
  Geometry relaxation not requested: no relaxation will be performed.
 * Notice: The s.c.f. convergence criterion sc_accuracy_rho was not provided.
 * We used to stop in this case, and ask the user to provide reasonable
 * scf convergence criteria. However, this led some users to employ criteria
 * that led to extremely long run times, e.g., for simple relaxation.
 * We now preset a default value for sc_accuracy_rho if it is not set.
 * You may still wish to check if this setting is too tight or too loose for your needs.
 * Based on n_atoms, FHI-aims chose sc_accuracy_rho =  0.100000E-05 .
  No accuracy limit for integral partition fn. given. Defaulting to  0.1000E-14.
  No threshold value for u(r) in integrations given. Defaulting to  0.1000E-05.
  No occupation type (smearing scheme) given. Defaulting to Gaussian broadening, width =  0.1000E-01 eV.
  The width will be adjusted in iteration number     3 of each s.c.f. cycle (i.e., each geometry step).
  S.C.F. convergence parameters will be adjusted in iteration number     3 of the first full s.c.f. cycle only.
  No accuracy for occupation numbers given. Defaulting to  0.1000E-12.
  No threshold value for occupation numbers given. Defaulting to  0.0000E+00.
  No accuracy for fermi level given. Defaulting to  0.1000E-19.
  Maximum # of iterations to find E_F not set. Defaulting to  200.
  Preferred method for the eigenvalue solver ('KS_method') not specified in 'control.in'.
  Defaulting to serial version, LAPACK (via ELSI), since more k-points than CPUs available.
  Will not use alltoall communication since running on < 1024 CPUs.
  Threshold for basis singularities not set.
  Default threshold for basis singularities:  0.1000E-04
  partition_type (choice of integration weights) for integrals was not specified.
  | Using a version of the partition function of Stratmann and coworkers ('stratmann_sparse').
  | At each grid point, the set of atoms used to build the partition table is smoothly restricted to
  | only those atoms whose free-atom density would be non-zero at that grid point.
  Partitioning for Hartree potential was not defined. Using partition_type for integrals.
  | Adjusted default value of keyword multip_moments_threshold to:       0.10000000E-11
  | This value may affect high angular momentum components of the Hartree potential in periodic systems.
  Angular momentum expansion for Kerker preconditioner not set explicitly.
  | Using default value of   0
  No explicit requirement for turning off preconditioner.
  | By default, it will be turned off when the charge convergence reaches
  | sc_accuracy_rho  =   0.100000E-05
  No special mixing parameter while Kerker preconditioner is on.
  Using default: charge_mix_param =     0.0500.
  No q(lm)/r^(l+1) cutoff set for long-range Hartree potential.
  | Using default value of  0.100000E-09 .
  | Verify using the multipole_threshold keyword.
  Defaulting to new monopole extrapolation.
  Density update method: automatic selection selected.
  Using density matrix based charge density update.
  Using density matrix based charge density update.
  Using packed matrix style: index .
  Defaulting to use time-reversal symmetry for k-point grid.
  Charge integration errors on the 3D integration grid will be compensated
  by explicit normalization and distribution of residual charges.
  Use the "compensate_multipole_errors" flag to change this behaviour.
  Set 'collect_eigenvectors' to be '.true.' for all serial calculations. This is mandatory.
  Set 'collect_eigenvectors' to be '.true.' for KS_method lapack_fast and serial.

  Consistency checks for the contents of geometry.in are next.


  Range separation radius for Ewald summation (hartree_convergence_parameter):      3.91873589 bohr.
  Number of empty states per atom not set in control.in - providing a guess from actual geometry.
  | Total number of empty states used during s.c.f. cycle:        6
  If you use a very high smearing, use empty_states (per atom!) in control.in to increase this value.

  Structure-dependent array size parameters: 
  | Maximum number of distinct radial functions  :        9
  | Maximum number of basis functions            :       50
  | Number of Kohn-Sham states (occupied + empty):       20
------------------------------------------------------------

------------------------------------------------------------
          Preparing all fixed parts of the calculation.
------------------------------------------------------------
  Determining machine precision:
     2.2250738585072014E-308
  Setting up grids for atomic and cluster calculations.

  Creating wave function, potential, and density for free atoms.

  Species: Si

  List of occupied orbitals and eigenvalues:
    n    l              occ      energy [Ha]    energy [eV]
    1    0           2.0000       -65.767597     -1789.6274
    2    0           2.0000        -5.115610      -139.2028
    3    0           2.0000        -0.388877       -10.5819
    2    1           6.0000        -3.500197       -95.2452
    3    1           2.0000        -0.140803        -3.8315


  Adding cutoff potential to free-atom effective potential.
  Creating fixed part of basis set: Ionic, confined, hydrogenic.

  Si                   ion:

  List of free ionic orbitals and eigenvalues:
    n    l      energy [Ha]    energy [eV]
    1    0       -66.641157     -1813.3982
    2    0        -5.964274      -162.2962
    3    0        -1.073878       -29.2217
    2    1        -4.350005      -118.3697
    3    1        -0.776571       -21.1316


  List of ionic basis orbitals and eigenvalues:
    n    l      energy [Ha]    energy [eV]    outer radius [A]
    3    0        -1.073857       -29.2211       4.214062


  Si                   hydrogenic:

  List of hydrogenic basis orbitals: 
    n    l      effective z      eigenvalue [eV]  inner max. [A]     outer max. [A]     outer radius [A]   
    3    2         4.200000       -26.6624           1.139231           1.139231           4.534782
    2    1         1.400000        -6.4613           1.472672           1.472672           4.590560
    4    3         6.200000       -32.6778           1.368518           1.368518           4.534782

  Creating atomic-like basis functions for current effective potential.

  Species Si                  :

  List of atomic basis orbitals and eigenvalues:
    n    l      energy [Ha]    energy [eV]    outer radius [A]
    1    0       -65.767597     -1789.6274       0.789468
    2    0        -5.115610      -139.2028       2.815114
    3    0        -0.388877       -10.5819       4.534782
    2    1        -3.500197       -95.2452       3.259919
    3    1        -0.140803        -3.8315       4.590560

  Assembling full basis from fixed parts.
  | Species Si :   atomic orbital   1 s accepted.
  | Species Si :   atomic orbital   2 s accepted.
  | Species Si :    ionic orbital   3 s accepted.
  | Species Si :   atomic orbital   3 s accepted.
  | Species Si :   atomic orbital   2 p accepted.
  | Species Si :   atomic orbital   3 p accepted.
  | Species Si :    hydro orbital   2 p accepted.
  | Species Si :    hydro orbital   3 d accepted.
  | Species Si :    hydro orbital   4 f accepted.

  Basis size parameters after reduction:
  | Total number of radial functions:        9
  | Total number of basis functions :       50

  Per-task memory consumption for arrays in subroutine allocate_ext:
  |           3.102808MB.
  Testing on-site integration grid accuracy.
  |  Species  Function  <phi|h_atom|phi> (log., in eV)  <phi|h_atom|phi> (rad., in eV)
           1        1              -1789.6273740966              -1789.6266345813
           1        2               -139.2028173376               -139.2028132357
           1        3                -10.2237226190                -10.2235219160
           1        4                  5.6355365073                  5.5558633521 ***
           1        5                -95.2452114632                -95.2452114537
           1        6                 -3.8413965043                 -3.8571292824
           1        7                  6.4035522332                  6.2277973139 ***
           1        8                  6.3860095444                  6.3839142324
           1        9                 19.3722793793                 19.3677446767
 * Note: Onsite integrals marked "***" above are less accurate than
 * onsite_accuracy_threshold =    0.03000 eV. Usually, this is harmless.
 * When in doubt, tighten the "radial" and/or "radial_multiplier" flags to check.

  Preparing densities etc. for the partition functions (integrals / Hartree potential).

  Preparations completed.
  max(cpu_time)          :      0.205 s.
  Wall clock time (cpu1) :      0.203 s.
------------------------------------------------------------

------------------------------------------------------------
          Begin self-consistency loop: Initialization.

          Date     :  20201221, Time     :  165935.620
------------------------------------------------------------

  Initializing index lists of integration centers etc. from given atomic structure:
  Mapping all atomic coordinates to central unit cell.

  Initializing the k-points
  Using symmetry for reducing the k-points
  | k-points reduced from:     4096 to     2052
  | Number of k-points                             :      2052
  The eigenvectors in the calculations are COMPLEX.
  | K-points in task   0:       513
  | K-points in task   1:       513
  | K-points in task   2:       513
  | K-points in task   3:       513
  | Number of basis functions in the Hamiltonian integrals :      2161
  | Number of basis functions in a single unit cell        :        50
  | Number of centers in hartree potential         :       732
  | Number of centers in hartree multipole         :       318
  | Number of centers in electron density summation:       198
  | Number of centers in basis integrals           :       198
  | Number of centers in integrals                 :       101
  | Number of centers in hamiltonian               :       198
  | Consuming       3591 KiB for k_phase.
  | Number of super-cells (origin) [n_cells]                     :        2197
  | Number of super-cells (after PM_index) [n_cells]             :         112
  | Number of super-cells in hamiltonian [n_cells_in_hamiltonian]:         112
  | Size of matrix packed + index [n_hamiltonian_matrix_size] :       86523
  | Estimated reciprocal-space cutoff momentum G_max:         2.38133540 bohr^-1 .
  | Reciprocal lattice points for long-range Hartree potential:      58
  Partitioning the integration grid into batches with parallel hashing+maxmin method.
  | Number of batches:      140
  | Maximal batch size:     107
  | Minimal batch size:      50
  | Average batch size:      80.057
  | Standard deviation of batch sizes:      14.801

  Integration load balanced across     4 MPI tasks.
  Work distribution over tasks is as follows:
  Task     0 has       2849 integration points.
  Task     1 has       2789 integration points.
  Task     2 has       2766 integration points.
  Task     3 has       2804 integration points.
  Initializing partition tables, free-atom densities, potentials, etc. across the integration grid (initialize_grid_storage).
  | initialize_grid_storage: Actual outermost partition radius vs. multipole_radius_free
  | (-- VB: in principle, multipole_radius_free should be larger, hence this output)
  | Species        1: Confinement radius =              4.999999999999999 AA, multipole_radius_free =              5.000694715736543 AA.
  | Species        1: outer_partition_radius set to              5.000694715736543 AA .
  | The sparse table of interatomic distances needs        212.76 kbyte instead of       313.63 kbyte of memory.
  | Net number of integration points:    11208
  | of which are non-zero points    :     9820
  | Numerical average free-atom electrostatic potential    :    -12.85673500 eV
  Renormalizing the initial density to the exact electron count on the 3D integration grid.
  | Initial density: Formal number of electrons (from input files) :      28.0000000000
  | Integrated number of electrons on 3D grid     :      28.0047528210
  | Charge integration error                      :       0.0047528210
  | Normalization factor for density and gradient :       0.9998302852
  Renormalizing the free-atom superposition density to the exact electron count on the 3D integration grid.
  | Formal number of electrons (from input files) :      28.0000000000
  | Integrated number of electrons on 3D grid     :      28.0047528210
  | Charge integration error                      :       0.0047528210
  | Normalization factor for density and gradient :       0.9998302852
  Obtaining max. number of non-zero basis functions in each batch (get_n_compute_maxes).
  | Maximal number of non-zero basis functions:      686 in task     0
  | Maximal number of non-zero basis functions:      691 in task     1
  | Maximal number of non-zero basis functions:      691 in task     2
  | Maximal number of non-zero basis functions:      674 in task     3
  Allocating        7.828 MB for KS_eigenvector_complex
  Integrating Hamiltonian matrix: batch-based integration.
  Time summed over all CPUs for integration: real work        1.314 s, elapsed        1.353 s
  Integrating overlap matrix.
  Time summed over all CPUs for integration: real work        1.161 s, elapsed        1.212 s
  Decreasing sparse matrix size:
  | Tolerance:  0.1000E-12
  Hamiltonian matrix
  | Array has    76970 nonzero elements out of    86523 elements
  | Sparsity factor is 0.110
  Overlap matrix
  | Array has    72538 nonzero elements out of    86523 elements
  | Sparsity factor is 0.162
  New size of hamiltonian matrix:       77471

  Updating Kohn-Sham eigenvalues and eigenvectors using ELSI and the (modified) LAPACK eigensolver.
  Singularity check in k-point 4, task 0 (analysis for other k-points/tasks may follow below):
  Overlap matrix is not singular
  | Lowest and highest eigenvalues :  0.7503E-03,  0.7076E+01
  Finished singularity check of overlap matrix
  | Time :     0.005 s
  Starting LAPACK eigensolver
  Finished Cholesky decomposition
  | Time :     0.001 s
  Finished transformation to standard eigenproblem
  | Time :     0.001 s
  Finished solving standard eigenproblem
  | Time :     0.001 s
  Finished back-transformation of eigenvectors
  | Time :     0.000 s

  Obtaining occupation numbers and chemical potential using ELSI.
  | Chemical potential (Fermi level):    -5.62019270 eV
  Writing Kohn-Sham eigenvalues.
  K-point:       1 at    0.000000    0.000000    0.000000 (in units of recip. lattice)

  State    Occupation    Eigenvalue [Ha]    Eigenvalue [eV]
      1       2.00000         -65.787897        -1790.17976
      2       2.00000         -65.787897        -1790.17976
      3       2.00000          -5.140312         -139.87499
      4       2.00000          -5.140054         -139.86800
      5       2.00000          -3.524910          -95.91768
      6       2.00000          -3.524910          -95.91768
      7       2.00000          -3.524910          -95.91768
      8       2.00000          -3.524336          -95.90206
      9       2.00000          -3.524336          -95.90206
     10       2.00000          -3.524336          -95.90206
     11       2.00000          -0.655472          -17.83629
     12       2.00000          -0.224530           -6.10976
     13       2.00000          -0.224530           -6.10976
     14       2.00000          -0.224530           -6.10976
     15       0.00000          -0.122981           -3.34650
     16       0.00000          -0.122981           -3.34650
     17       0.00000          -0.122981           -3.34650
     18       0.00000          -0.109760           -2.98671
     19       0.00000           0.073311            1.99490
     20       0.00000           0.073311            1.99490

  What follows are estimated values for band gap, HOMO, LUMO, etc.
  | They are estimated on a discrete k-point grid and not necessarily exact.
  | For converged numbers, create a DOS and/or band structure plot on a denser k-grid.

  Highest occupied state (VBM) at     -6.10976192 eV (relative to internal zero)
  | Occupation number:      2.00000000
  | K-point:       1 at    0.000000    0.000000    0.000000 (in units of recip. lattice)

  Lowest unoccupied state (CBM) at    -5.21008963 eV (relative to internal zero)
  | Occupation number:      0.00000000
  | K-point:    1367 at    0.437500    0.437500    0.000000 (in units of recip. lattice)

  ESTIMATED overall HOMO-LUMO gap:      0.89967230 eV between HOMO at k-point 1 and LUMO at k-point 1367
  | This appears to be an indirect band gap.
  | Smallest direct gap :      2.73039573 eV for k_point 94 at    0.000000    0.500000    0.000000 (in units of recip. lattice)
  The gap value is above 0.2 eV. Unless you are using a very sparse k-point grid,
  this system is most likely an insulator or a semiconductor.
  Calculating total energy contributions from superposition of free atom densities.

  Total energy components:
  | Sum of eigenvalues            :        -329.25250105 Ha       -8959.41640376 eV
  | XC energy correction          :         -41.71276369 Ha       -1135.06205122 eV
  | XC potential correction       :          53.86954608 Ha        1465.86493127 eV
  | Free-atom electrostatic energy:        -263.64579720 Ha       -7174.16715932 eV
  | Hartree energy correction     :          -0.00000000 Ha          -0.00000000 eV
  | Entropy correction            :          -0.00000000 Ha          -0.00000000 eV
  | ---------------------------
  | Total energy                  :        -580.74151585 Ha      -15802.78068304 eV
  | Total energy, T -> 0          :        -580.74151585 Ha      -15802.78068304 eV  <-- do not rely on this value for anything but (periodic) metals
  | Electronic free energy        :        -580.74151585 Ha      -15802.78068304 eV

  Derived energy quantities:
  | Kinetic energy                :         582.28106633 Ha       15844.67398299 eV
  | Electrostatic energy          :       -1121.30981850 Ha      -30512.39261481 eV
  | Energy correction for multipole
  | error in Hartree potential    :           0.00000000 Ha           0.00000000 eV
  | Sum of eigenvalues per atom                           :       -4479.70820188 eV
  | Total energy (T->0) per atom                          :       -7901.39034152 eV  <-- do not rely on this value for anything but (periodic) metals
  | Electronic free energy per atom                       :       -7901.39034152 eV
  Initialize hartree_potential_storage
  Max. number of atoms included in rho_multipole:            2

  End scf initialization - timings             :  max(cpu_time)    wall_clock(cpu1)
  | Time for scf. initialization               :        1.996 s           2.001 s
  | Boundary condition initialization          :        0.155 s           0.156 s
  | Integration                                :        0.679 s           0.679 s
  | Solution of K.-S. eqns.                    :        0.977 s           0.979 s
  | Grid partitioning                          :        0.037 s           0.035 s
  | Preloading free-atom quantities on grid    :        0.124 s           0.124 s
  | Free-atom superposition energy             :        0.014 s           0.014 s
  | Total energy evaluation                    :        0.001 s           0.002 s

  Partial memory accounting:
  | Current value for overall tracked memory usage:
  |   Minimum:        9.306 MB (on task 0)
  |   Maximum:        9.306 MB (on task 0)
  |   Average:        9.306 MB
  | Peak value for overall tracked memory usage:
  |   Minimum:       14.610 MB (on task 3 after allocating wave)
  |   Maximum:       14.829 MB (on task 1 after allocating wave)
  |   Average:       14.758 MB
  | Largest tracked array allocation so far:
  |   Minimum:        7.828 MB (KS_eigenvector_complex on task 0)
  |   Maximum:        7.828 MB (KS_eigenvector_complex on task 0)
  |   Average:        7.828 MB
  Note:  These values currently only include a subset of arrays which are explicitly tracked.
  The "true" memory usage will be greater.
------------------------------------------------------------

------------------------------------------------------------
          Begin self-consistency iteration #    1

  Date     :  20201221, Time     :  165937.627
------------------------------------------------------------
  Evaluating new KS density using the density matrix
  Evaluating density matrix
  Time summed over all CPUs for getting density from density matrix: real work        2.785 s, elapsed        2.830 s
  Integration grid: deviation in total charge (<rho> - N_e) =   0.000000E+00
  Pulay mixing of updated and previous charge densities.
  Renormalizing the density to the exact electron count on the 3D integration grid.
  | Formal number of electrons (from input files) :      28.0000000000
  | Integrated number of electrons on 3D grid     :      27.9997766417
  | Charge integration error                      :      -0.0002233583
  | Normalization factor for density and gradient :       1.0000079771

  Evaluating partitioned Hartree potential by multipole expansion.
  | Original multipole sum: apparent total charge =   0.529400E-14
  | Sum of charges compensated after spline to logarithmic grids =  -0.405444E-05
  | Analytical far-field extrapolation by fixed multipoles:
  | Hartree multipole sum: apparent total charge =  -0.000000E+00
  Summing up the Hartree potential.
  Time summed over all CPUs for potential: real work        0.518 s, elapsed        0.538 s
  | RMS charge density error from multipole expansion :   0.525593E-03
  | Average real-space part of the electrostatic potential :      0.01801950 eV

  Integrating Hamiltonian matrix: batch-based integration.
  Time summed over all CPUs for integration: real work        1.403 s, elapsed        1.415 s

  Updating Kohn-Sham eigenvalues and eigenvectors using ELSI and the (modified) LAPACK eigensolver.
  Starting LAPACK eigensolver
  Finished Cholesky decomposition
  | Time :     0.000 s
  Finished transformation to standard eigenproblem
  | Time :     0.000 s
  Finished solving standard eigenproblem
  | Time :     0.001 s
  Finished back-transformation of eigenvectors
  | Time :     0.000 s

  Obtaining occupation numbers and chemical potential using ELSI.
  | Chemical potential (Fermi level):    -5.59264704 eV
  Writing Kohn-Sham eigenvalues.
  K-point:       1 at    0.000000    0.000000    0.000000 (in units of recip. lattice)

  State    Occupation    Eigenvalue [Ha]    Eigenvalue [eV]
      1       2.00000         -65.785607        -1790.11743
      2       2.00000         -65.785607        -1790.11743
      3       2.00000          -5.138656         -139.82993
      4       2.00000          -5.138398         -139.82294
      5       2.00000          -3.523201          -95.87118
      6       2.00000          -3.523201          -95.87118
      7       2.00000          -3.523201          -95.87118
      8       2.00000          -3.522627          -95.85556
      9       2.00000          -3.522627          -95.85556
     10       2.00000          -3.522627          -95.85556
     11       2.00000          -0.654723          -17.81592
     12       2.00000          -0.223558           -6.08332
     13       2.00000          -0.223558           -6.08332
     14       2.00000          -0.223558           -6.08332
     15       0.00000          -0.122406           -3.33085
     16       0.00000          -0.122406           -3.33085
     17       0.00000          -0.122406           -3.33085
     18       0.00000          -0.108633           -2.95606
     19       0.00000           0.073850            2.00956
     20       0.00000           0.073850            2.00956

  What follows are estimated values for band gap, HOMO, LUMO, etc.
  | They are estimated on a discrete k-point grid and not necessarily exact.
  | For converged numbers, create a DOS and/or band structure plot on a denser k-grid.

  Highest occupied state (VBM) at     -6.08332251 eV (relative to internal zero)
  | Occupation number:      2.00000000
  | K-point:       1 at    0.000000    0.000000    0.000000 (in units of recip. lattice)

  Lowest unoccupied state (CBM) at    -5.20025419 eV (relative to internal zero)
  | Occupation number:      0.00000000
  | K-point:    1288 at    0.437500    0.000000    0.437500 (in units of recip. lattice)

  ESTIMATED overall HOMO-LUMO gap:      0.88306832 eV between HOMO at k-point 1 and LUMO at k-point 1288
  | This appears to be an indirect band gap.
  | Smallest direct gap :      2.72602994 eV for k_point 94 at    0.000000    0.500000    0.000000 (in units of recip. lattice)
  The gap value is above 0.2 eV. Unless you are using a very sparse k-point grid,
  this system is most likely an insulator or a semiconductor.

  Total energy components:
  | Sum of eigenvalues            :        -329.20987766 Ha       -8958.25656230 eV
  | XC energy correction          :         -41.71585261 Ha       -1135.14610510 eV
  | XC potential correction       :          53.87353790 Ha        1465.97355411 eV
  | Free-atom electrostatic energy:        -263.64579720 Ha       -7174.16715932 eV
  | Hartree energy correction     :          -0.04303076 Ha          -1.17092650 eV
  | Entropy correction            :          -0.00000000 Ha          -0.00000000 eV
  | ---------------------------
  | Total energy                  :        -580.74102033 Ha      -15802.76719910 eV
  | Total energy, T -> 0          :        -580.74102033 Ha      -15802.76719910 eV  <-- do not rely on this value for anything but (periodic) metals
  | Electronic free energy        :        -580.74102033 Ha      -15802.76719910 eV

  Derived energy quantities:
  | Kinetic energy                :         582.29698793 Ha       15845.10723168 eV
  | Electrostatic energy          :       -1121.32215565 Ha      -30512.72832569 eV
  | Energy correction for multipole
  | error in Hartree potential    :           0.00066750 Ha           0.01816364 eV
  | Sum of eigenvalues per atom                           :       -4479.12828115 eV
  | Total energy (T->0) per atom                          :       -7901.38359955 eV  <-- do not rely on this value for anything but (periodic) metals
  | Electronic free energy per atom                       :       -7901.38359955 eV

  Self-consistency convergence accuracy:
  | Change of charge density      :  0.1094E+00
  | Change of sum of eigenvalues  :  0.1160E+01 eV
  | Change of total energy        :  0.1348E-01 eV

  End self-consistency iteration #     1       :  max(cpu_time)    wall_clock(cpu1)
  | Time for this iteration                    :        2.175 s           2.177 s
  | Charge density update                      :        0.876 s           0.875 s
  | Density mixing & preconditioning           :        0.083 s           0.083 s
  | Hartree multipole update                   :        0.002 s           0.003 s
  | Hartree multipole summation                :        0.141 s           0.142 s
  | Integration                                :        0.364 s           0.363 s
  | Solution of K.-S. eqns.                    :        0.699 s           0.704 s
  | Total energy evaluation                    :        0.007 s           0.003 s

  Partial memory accounting:
  | Current value for overall tracked memory usage:
  |   Minimum:        9.306 MB (on task 0)
  |   Maximum:        9.306 MB (on task 0)
  |   Average:        9.306 MB
  | Peak value for overall tracked memory usage:
  |   Minimum:       16.073 MB (on task 3 after allocating gradient_basis_wave)
  |   Maximum:       16.333 MB (on task 1 after allocating gradient_basis_wave)
  |   Average:       16.249 MB
  | Largest tracked array allocation so far:
  |   Minimum:        7.828 MB (KS_eigenvector_complex on task 0)
  |   Maximum:        7.828 MB (KS_eigenvector_complex on task 0)
  |   Average:        7.828 MB
  Note:  These values currently only include a subset of arrays which are explicitly tracked.
  The "true" memory usage will be greater.
------------------------------------------------------------

------------------------------------------------------------
          Begin self-consistency iteration #    2

  Date     :  20201221, Time     :  165939.809
------------------------------------------------------------
  Evaluating new KS density using the density matrix
  Evaluating density matrix
  Time summed over all CPUs for getting density from density matrix: real work        2.784 s, elapsed        2.840 s
  Integration grid: deviation in total charge (<rho> - N_e) =  -1.421085E-14
  Pulay mixing of updated and previous charge densities.
  Renormalizing the density to the exact electron count on the 3D integration grid.
  | Formal number of electrons (from input files) :      28.0000000000
  | Integrated number of electrons on 3D grid     :      27.9961221638
  | Charge integration error                      :      -0.0038778362
  | Normalization factor for density and gradient :       1.0001385133

  Evaluating partitioned Hartree potential by multipole expansion.
  | Original multipole sum: apparent total charge =   0.591148E-13
  | Sum of charges compensated after spline to logarithmic grids =  -0.763673E-04
  | Analytical far-field extrapolation by fixed multipoles:
  | Hartree multipole sum: apparent total charge =  -0.000000E+00
  Summing up the Hartree potential.
  Time summed over all CPUs for potential: real work        0.609 s, elapsed        0.619 s
  | RMS charge density error from multipole expansion :   0.990591E-02
  | Average real-space part of the electrostatic potential :      0.33586925 eV

  Integrating Hamiltonian matrix: batch-based integration.
  Time summed over all CPUs for integration: real work        1.398 s, elapsed        1.442 s

  Updating Kohn-Sham eigenvalues and eigenvectors using ELSI and the (modified) LAPACK eigensolver.
  Starting LAPACK eigensolver
  Finished Cholesky decomposition
  | Time :     0.000 s
  Finished transformation to standard eigenproblem
  | Time :     0.000 s
  Finished solving standard eigenproblem
  | Time :     0.000 s
  Finished back-transformation of eigenvectors
  | Time :     0.000 s

  Obtaining occupation numbers and chemical potential using ELSI.
  | Chemical potential (Fermi level):    -5.07492366 eV
  What follows are estimated values for band gap, HOMO, LUMO, etc.
  | They are estimated on a discrete k-point grid and not necessarily exact.
  | For converged numbers, create a DOS and/or band structure plot on a denser k-grid.

  Highest occupied state (VBM) at     -5.57783621 eV (relative to internal zero)
  | Occupation number:      2.00000000
  | K-point:       1 at    0.000000    0.000000    0.000000 (in units of recip. lattice)

  Lowest unoccupied state (CBM) at    -4.97580927 eV (relative to internal zero)
  | Occupation number:      0.00000000
  | K-point:     105 at    0.000000    0.562500    0.562500 (in units of recip. lattice)

  ESTIMATED overall HOMO-LUMO gap:      0.60202693 eV between HOMO at k-point 1 and LUMO at k-point 105
  | This appears to be an indirect band gap.
  | Smallest direct gap :      2.54772167 eV for k_point 1 at    0.000000    0.000000    0.000000 (in units of recip. lattice)
  The gap value is above 0.2 eV. Unless you are using a very sparse k-point grid,
  this system is most likely an insulator or a semiconductor.

  Total energy components:
  | Sum of eigenvalues            :        -328.45871844 Ha       -8937.81647977 eV
  | XC energy correction          :         -41.78271454 Ha       -1136.96551088 eV
  | XC potential correction       :          53.95881851 Ha        1468.29415754 eV
  | Free-atom electrostatic energy:        -263.64579720 Ha       -7174.16715932 eV
  | Hartree energy correction     :          -0.80891584 Ha         -22.01171995 eV
  | Entropy correction            :          -0.00000000 Ha          -0.00000000 eV
  | ---------------------------
  | Total energy                  :        -580.73732751 Ha      -15802.66671238 eV
  | Total energy, T -> 0          :        -580.73732751 Ha      -15802.66671238 eV  <-- do not rely on this value for anything but (periodic) metals
  | Electronic free energy        :        -580.73732751 Ha      -15802.66671238 eV

  Derived energy quantities:
  | Kinetic energy                :         582.54896367 Ha       15851.96384046 eV
  | Electrostatic energy          :       -1121.50357664 Ha      -30517.66504195 eV
  | Energy correction for multipole
  | error in Hartree potential    :           0.01258297 Ha           0.34239998 eV
  | Sum of eigenvalues per atom                           :       -4468.90823988 eV
  | Total energy (T->0) per atom                          :       -7901.33335619 eV  <-- do not rely on this value for anything but (periodic) metals
  | Electronic free energy per atom                       :       -7901.33335619 eV

  Self-consistency convergence accuracy:
  | Change of charge density      :  0.1037E+00
  | Change of sum of eigenvalues  :  0.2044E+02 eV
  | Change of total energy        :  0.1005E+00 eV

  End self-consistency iteration #     2       :  max(cpu_time)    wall_clock(cpu1)
  | Time for this iteration                    :        2.234 s           2.241 s
  | Charge density update                      :        0.890 s           0.890 s
  | Density mixing & preconditioning           :        0.085 s           0.086 s
  | Hartree multipole update                   :        0.001 s           0.001 s
  | Hartree multipole summation                :        0.160 s           0.161 s
  | Integration                                :        0.364 s           0.366 s
  | Solution of K.-S. eqns.                    :        0.732 s           0.733 s
  | Total energy evaluation                    :        0.003 s           0.002 s

  Partial memory accounting:
  | Current value for overall tracked memory usage:
  |   Minimum:        9.306 MB (on task 0)
  |   Maximum:        9.306 MB (on task 0)
  |   Average:        9.306 MB
  | Peak value for overall tracked memory usage:
  |   Minimum:       16.073 MB (on task 3 after allocating gradient_basis_wave)
  |   Maximum:       16.333 MB (on task 1 after allocating gradient_basis_wave)
  |   Average:       16.249 MB
  | Largest tracked array allocation so far:
  |   Minimum:        7.828 MB (KS_eigenvector_complex on task 0)
  |   Maximum:        7.828 MB (KS_eigenvector_complex on task 0)
  |   Average:        7.828 MB
  Note:  These values currently only include a subset of arrays which are explicitly tracked.
  The "true" memory usage will be greater.
------------------------------------------------------------

------------------------------------------------------------
          Begin self-consistency iteration #    3

  Date     :  20201221, Time     :  165942.059
------------------------------------------------------------
  Evaluating new KS density using the density matrix
  Evaluating density matrix
  Time summed over all CPUs for getting density from density matrix: real work        2.678 s, elapsed        2.718 s
  Integration grid: deviation in total charge (<rho> - N_e) =   0.000000E+00
  Pulay mixing of updated and previous charge densities.
  Renormalizing the density to the exact electron count on the 3D integration grid.
  | Formal number of electrons (from input files) :      28.0000000000
  | Integrated number of electrons on 3D grid     :      28.0008273759
  | Charge integration error                      :       0.0008273759
  | Normalization factor for density and gradient :       0.9999704517

  Evaluating partitioned Hartree potential by multipole expansion.
  | Original multipole sum: apparent total charge =   0.257140E-13
  | Sum of charges compensated after spline to logarithmic grids =  -0.780034E-04
  | Analytical far-field extrapolation by fixed multipoles:
  | Hartree multipole sum: apparent total charge =  -0.000000E+00
  Summing up the Hartree potential.
  Time summed over all CPUs for potential: real work        0.613 s, elapsed        0.626 s
  | RMS charge density error from multipole expansion :   0.101388E-01
  | Average real-space part of the electrostatic potential :      0.30716189 eV

  Integrating Hamiltonian matrix: batch-based integration.
  Time summed over all CPUs for integration: real work        1.481 s, elapsed        1.520 s

  Updating Kohn-Sham eigenvalues and eigenvectors using ELSI and the (modified) LAPACK eigensolver.
  Starting LAPACK eigensolver
  Finished Cholesky decomposition
  | Time :     0.000 s
  Finished transformation to standard eigenproblem
  | Time :     0.000 s
  Finished solving standard eigenproblem
  | Time :     0.000 s
  Finished back-transformation of eigenvectors
  | Time :     0.000 s

  Obtaining occupation numbers and chemical potential using ELSI.
  | Chemical potential (Fermi level):    -5.11865252 eV
  What follows are estimated values for band gap, HOMO, LUMO, etc.
  | They are estimated on a discrete k-point grid and not necessarily exact.
  | For converged numbers, create a DOS and/or band structure plot on a denser k-grid.

  Highest occupied state (VBM) at     -5.61748457 eV (relative to internal zero)
  | Occupation number:      2.00000000
  | K-point:       1 at    0.000000    0.000000    0.000000 (in units of recip. lattice)

  Lowest unoccupied state (CBM) at    -4.98813673 eV (relative to internal zero)
  | Occupation number:      0.00000000
  | K-point:     105 at    0.000000    0.562500    0.562500 (in units of recip. lattice)

  ESTIMATED overall HOMO-LUMO gap:      0.62934784 eV between HOMO at k-point 1 and LUMO at k-point 105
  | This appears to be an indirect band gap.
  | Smallest direct gap :      2.55817995 eV for k_point 1 at    0.000000    0.000000    0.000000 (in units of recip. lattice)
  The gap value is above 0.2 eV. Unless you are using a very sparse k-point grid,
  this system is most likely an insulator or a semiconductor.

  Checking to see if s.c.f. parameters should be adjusted.
  The system likely has a gap. Increased the default Pulay mixing parameter (charge_mix_param). Value:   0.200000 .
  Kept the default occupation width. Value:   0.010000 eV.

  Total energy components:
  | Sum of eigenvalues            :        -328.62710689 Ha       -8942.39856274 eV
  | XC energy correction          :         -41.76785438 Ha       -1136.56114517 eV
  | XC potential correction       :          53.93954127 Ha        1467.76959739 eV
  | Free-atom electrostatic energy:        -263.64579720 Ha       -7174.16715932 eV
  | Hartree energy correction     :          -0.63591945 Ha         -17.30424857 eV
  | Entropy correction            :          -0.00000000 Ha          -0.00000000 eV
  | ---------------------------
  | Total energy                  :        -580.73713664 Ha      -15802.66151841 eV
  | Total energy, T -> 0          :        -580.73713664 Ha      -15802.66151841 eV  <-- do not rely on this value for anything but (periodic) metals
  | Electronic free energy        :        -580.73713664 Ha      -15802.66151841 eV

  Derived energy quantities:
  | Kinetic energy                :         582.33563732 Ha       15846.15893511 eV
  | Electrostatic energy          :       -1121.30491958 Ha      -30512.25930835 eV
  | Energy correction for multipole
  | error in Hartree potential    :           0.01289138 Ha           0.35079237 eV
  | Sum of eigenvalues per atom                           :       -4471.19928137 eV
  | Total energy (T->0) per atom                          :       -7901.33075921 eV  <-- do not rely on this value for anything but (periodic) metals
  | Electronic free energy per atom                       :       -7901.33075921 eV

  Self-consistency convergence accuracy:
  | Change of charge density      :  0.1649E-01
  | Change of sum of eigenvalues  : -0.4582E+01 eV
  | Change of total energy        :  0.5194E-02 eV

  End self-consistency iteration #     3       :  max(cpu_time)    wall_clock(cpu1)
  | Time for this iteration                    :        2.225 s           2.241 s
  | Charge density update                      :        0.847 s           0.847 s
  | Density mixing & preconditioning           :        0.106 s           0.107 s
  | Hartree multipole update                   :        0.002 s           0.002 s
  | Hartree multipole summation                :        0.163 s           0.164 s
  | Integration                                :        0.377 s           0.386 s
  | Solution of K.-S. eqns.                    :        0.727 s           0.727 s
  | Total energy evaluation                    :        0.003 s           0.002 s

  Partial memory accounting:
  | Current value for overall tracked memory usage:
  |   Minimum:        9.306 MB (on task 0)
  |   Maximum:        9.306 MB (on task 0)
  |   Average:        9.306 MB
  | Peak value for overall tracked memory usage:
  |   Minimum:       16.073 MB (on task 3 after allocating gradient_basis_wave)
  |   Maximum:       16.334 MB (on task 1 after allocating gradient_basis_wave)
  |   Average:       16.249 MB
  | Largest tracked array allocation so far:
  |   Minimum:        7.828 MB (KS_eigenvector_complex on task 0)
  |   Maximum:        7.828 MB (KS_eigenvector_complex on task 0)
  |   Average:        7.828 MB
  Note:  These values currently only include a subset of arrays which are explicitly tracked.
  The "true" memory usage will be greater.
------------------------------------------------------------

------------------------------------------------------------
          Begin self-consistency iteration #    4

  Date     :  20201221, Time     :  165944.309
------------------------------------------------------------
  Evaluating new KS density using the density matrix
  Evaluating density matrix
  Time summed over all CPUs for getting density from density matrix: real work        2.861 s, elapsed        2.898 s
  Integration grid: deviation in total charge (<rho> - N_e) =   7.105427E-15
  Pulay mixing of updated and previous charge densities.
  Renormalizing the density to the exact electron count on the 3D integration grid.
  | Formal number of electrons (from input files) :      28.0000000000
  | Integrated number of electrons on 3D grid     :      28.0003909818
  | Charge integration error                      :       0.0003909818
  | Normalization factor for density and gradient :       0.9999860366

  Evaluating partitioned Hartree potential by multipole expansion.
  | Original multipole sum: apparent total charge =   0.360086E-13
  | Sum of charges compensated after spline to logarithmic grids =  -0.834505E-04
  | Analytical far-field extrapolation by fixed multipoles:
  | Hartree multipole sum: apparent total charge =  -0.000000E+00
  Summing up the Hartree potential.
  Time summed over all CPUs for potential: real work        0.687 s, elapsed        0.696 s
  | RMS charge density error from multipole expansion :   0.108223E-01
  | Average real-space part of the electrostatic potential :      0.30371077 eV

  Integrating Hamiltonian matrix: batch-based integration.
  Time summed over all CPUs for integration: real work        1.228 s, elapsed        1.248 s

  Updating Kohn-Sham eigenvalues and eigenvectors using ELSI and the (modified) LAPACK eigensolver.
  Starting LAPACK eigensolver
  Finished Cholesky decomposition
  | Time :     0.000 s
  Finished transformation to standard eigenproblem
  | Time :     0.000 s
  Finished solving standard eigenproblem
  | Time :     0.000 s
  Finished back-transformation of eigenvectors
  | Time :     0.000 s

  Obtaining occupation numbers and chemical potential using ELSI.
  | Chemical potential (Fermi level):    -5.12021861 eV
  What follows are estimated values for band gap, HOMO, LUMO, etc.
  | They are estimated on a discrete k-point grid and not necessarily exact.
  | For converged numbers, create a DOS and/or band structure plot on a denser k-grid.

  Highest occupied state (VBM) at     -5.61711840 eV (relative to internal zero)
  | Occupation number:      2.00000000
  | K-point:       1 at    0.000000    0.000000    0.000000 (in units of recip. lattice)

  Lowest unoccupied state (CBM) at    -4.98127499 eV (relative to internal zero)
  | Occupation number:      0.00000000
  | K-point:     105 at    0.000000    0.562500    0.562500 (in units of recip. lattice)

  ESTIMATED overall HOMO-LUMO gap:      0.63584341 eV between HOMO at k-point 1 and LUMO at k-point 105
  | This appears to be an indirect band gap.
  | Smallest direct gap :      2.55454269 eV for k_point 1 at    0.000000    0.000000    0.000000 (in units of recip. lattice)
  The gap value is above 0.2 eV. Unless you are using a very sparse k-point grid,
  this system is most likely an insulator or a semiconductor.

  Total energy components:
  | Sum of eigenvalues            :        -328.70226785 Ha       -8944.44379640 eV
  | XC energy correction          :         -41.76249974 Ha       -1136.41543820 eV
  | XC potential correction       :          53.93241343 Ha        1467.57563899 eV
  | Free-atom electrostatic energy:        -263.64579720 Ha       -7174.16715932 eV
  | Hartree energy correction     :          -0.55890550 Ha         -15.20859239 eV
  | Entropy correction            :          -0.00000000 Ha          -0.00000000 eV
  | ---------------------------
  | Total energy                  :        -580.73705685 Ha      -15802.65934731 eV
  | Total energy, T -> 0          :        -580.73705685 Ha      -15802.65934731 eV  <-- do not rely on this value for anything but (periodic) metals
  | Electronic free energy        :        -580.73705685 Ha      -15802.65934731 eV

  Derived energy quantities:
  | Kinetic energy                :         582.21587552 Ha       15842.90005079 eV
  | Electrostatic energy          :       -1121.19043263 Ha      -30509.14395990 eV
  | Energy correction for multipole
  | error in Hartree potential    :           0.01378518 Ha           0.37511381 eV
  | Sum of eigenvalues per atom                           :       -4472.22189820 eV
  | Total energy (T->0) per atom                          :       -7901.32967366 eV  <-- do not rely on this value for anything but (periodic) metals
  | Electronic free energy per atom                       :       -7901.32967366 eV

  Self-consistency convergence accuracy:
  | Change of charge density      :  0.8336E-02
  | Change of sum of eigenvalues  : -0.2045E+01 eV
  | Change of total energy        :  0.2171E-02 eV

  End self-consistency iteration #     4       :  max(cpu_time)    wall_clock(cpu1)
  | Time for this iteration                    :        2.219 s           2.221 s
  | Charge density update                      :        0.911 s           0.911 s
  | Density mixing & preconditioning           :        0.085 s           0.089 s
  | Hartree multipole update                   :        0.001 s           0.001 s
  | Hartree multipole summation                :        0.179 s           0.181 s
  | Integration                                :        0.318 s           0.318 s
  | Solution of K.-S. eqns.                    :        0.717 s           0.718 s
  | Total energy evaluation                    :        0.002 s           0.000 s

  Partial memory accounting:
  | Current value for overall tracked memory usage:
  |   Minimum:        9.306 MB (on task 0)
  |   Maximum:        9.306 MB (on task 0)
  |   Average:        9.306 MB
  | Peak value for overall tracked memory usage:
  |   Minimum:       16.073 MB (on task 3 after allocating gradient_basis_wave)
  |   Maximum:       16.334 MB (on task 1 after allocating gradient_basis_wave)
  |   Average:       16.249 MB
  | Largest tracked array allocation so far:
  |   Minimum:        7.828 MB (KS_eigenvector_complex on task 0)
  |   Maximum:        7.828 MB (KS_eigenvector_complex on task 0)
  |   Average:        7.828 MB
  Note:  These values currently only include a subset of arrays which are explicitly tracked.
  The "true" memory usage will be greater.
------------------------------------------------------------

------------------------------------------------------------
          Begin self-consistency iteration #    5

  Date     :  20201221, Time     :  165946.531
------------------------------------------------------------
  Evaluating new KS density using the density matrix
  Evaluating density matrix
  Time summed over all CPUs for getting density from density matrix: real work        2.770 s, elapsed        2.819 s
  Integration grid: deviation in total charge (<rho> - N_e) =   1.065814E-14
  Pulay mixing of updated and previous charge densities.
  Renormalizing the density to the exact electron count on the 3D integration grid.
  | Formal number of electrons (from input files) :      28.0000000000
  | Integrated number of electrons on 3D grid     :      28.0002493004
  | Charge integration error                      :       0.0002493004
  | Normalization factor for density and gradient :       0.9999910965

  Evaluating partitioned Hartree potential by multipole expansion.
  | Original multipole sum: apparent total charge =   0.754405E-13
  | Sum of charges compensated after spline to logarithmic grids =  -0.868365E-04
  | Analytical far-field extrapolation by fixed multipoles:
  | Hartree multipole sum: apparent total charge =  -0.000000E+00
  Summing up the Hartree potential.
  Time summed over all CPUs for potential: real work        0.617 s, elapsed        0.649 s
  | RMS charge density error from multipole expansion :   0.110726E-01
  | Average real-space part of the electrostatic potential :      0.29811281 eV

  Integrating Hamiltonian matrix: batch-based integration.
  Time summed over all CPUs for integration: real work        1.434 s, elapsed        1.466 s

  Updating Kohn-Sham eigenvalues and eigenvectors using ELSI and the (modified) LAPACK eigensolver.
  Starting LAPACK eigensolver
  Finished Cholesky decomposition
  | Time :     0.000 s
  Finished transformation to standard eigenproblem
  | Time :     0.000 s
  Finished solving standard eigenproblem
  | Time :     0.001 s
  Finished back-transformation of eigenvectors
  | Time :     0.000 s

  Obtaining occupation numbers and chemical potential using ELSI.
  | Chemical potential (Fermi level):    -5.12821818 eV
  What follows are estimated values for band gap, HOMO, LUMO, etc.
  | They are estimated on a discrete k-point grid and not necessarily exact.
  | For converged numbers, create a DOS and/or band structure plot on a denser k-grid.

  Highest occupied state (VBM) at     -5.62458483 eV (relative to internal zero)
  | Occupation number:      2.00000000
  | K-point:       1 at    0.000000    0.000000    0.000000 (in units of recip. lattice)

  Lowest unoccupied state (CBM) at    -4.98120011 eV (relative to internal zero)
  | Occupation number:      0.00000000
  | K-point:     105 at    0.000000    0.562500    0.562500 (in units of recip. lattice)

  ESTIMATED overall HOMO-LUMO gap:      0.64338471 eV between HOMO at k-point 1 and LUMO at k-point 105
  | This appears to be an indirect band gap.
  | Smallest direct gap :      2.55604130 eV for k_point 1 at    0.000000    0.000000    0.000000 (in units of recip. lattice)
  The gap value is above 0.2 eV. Unless you are using a very sparse k-point grid,
  this system is most likely an insulator or a semiconductor.

  Total energy components:
  | Sum of eigenvalues            :        -328.72633480 Ha       -8945.09869163 eV
  | XC energy correction          :         -41.76349464 Ha       -1136.44251071 eV
  | XC potential correction       :          53.93348182 Ha        1467.60471117 eV
  | Free-atom electrostatic energy:        -263.64579720 Ha       -7174.16715932 eV
  | Hartree energy correction     :          -0.53486231 Ha         -14.55434410 eV
  | Entropy correction            :          -0.00000000 Ha          -0.00000000 eV
  | ---------------------------
  | Total energy                  :        -580.73700714 Ha      -15802.65799458 eV
  | Total energy, T -> 0          :        -580.73700714 Ha      -15802.65799458 eV  <-- do not rely on this value for anything but (periodic) metals
  | Electronic free energy        :        -580.73700714 Ha      -15802.65799458 eV

  Derived energy quantities:
  | Kinetic energy                :         582.25051896 Ha       15843.84274681 eV
  | Electrostatic energy          :       -1121.22403146 Ha      -30510.05823068 eV
  | Energy correction for multipole
  | error in Hartree potential    :           0.01418079 Ha           0.38587904 eV
  | Sum of eigenvalues per atom                           :       -4472.54934581 eV
  | Total energy (T->0) per atom                          :       -7901.32899729 eV  <-- do not rely on this value for anything but (periodic) metals
  | Electronic free energy per atom                       :       -7901.32899729 eV

  Self-consistency convergence accuracy:
  | Change of charge density      :  0.3457E-02
  | Change of sum of eigenvalues  : -0.6549E+00 eV
  | Change of total energy        :  0.1353E-02 eV

  End self-consistency iteration #     5       :  max(cpu_time)    wall_clock(cpu1)
  | Time for this iteration                    :        2.227 s           2.242 s
  | Charge density update                      :        0.876 s           0.884 s
  | Density mixing & preconditioning           :        0.116 s           0.116 s
  | Hartree multipole update                   :        0.002 s           0.004 s
  | Hartree multipole summation                :        0.172 s           0.172 s
  | Integration                                :        0.372 s           0.372 s
  | Solution of K.-S. eqns.                    :        0.689 s           0.689 s
  | Total energy evaluation                    :        0.004 s           0.001 s

  Partial memory accounting:
  | Current value for overall tracked memory usage:
  |   Minimum:        9.306 MB (on task 0)
  |   Maximum:        9.306 MB (on task 0)
  |   Average:        9.306 MB
  | Peak value for overall tracked memory usage:
  |   Minimum:       16.073 MB (on task 3 after allocating gradient_basis_wave)
  |   Maximum:       16.334 MB (on task 1 after allocating gradient_basis_wave)
  |   Average:       16.249 MB
  | Largest tracked array allocation so far:
  |   Minimum:        7.828 MB (KS_eigenvector_complex on task 0)
  |   Maximum:        7.828 MB (KS_eigenvector_complex on task 0)
  |   Average:        7.828 MB
  Note:  These values currently only include a subset of arrays which are explicitly tracked.
  The "true" memory usage will be greater.
------------------------------------------------------------

------------------------------------------------------------
          Begin self-consistency iteration #    6

  Date     :  20201221, Time     :  165948.776
------------------------------------------------------------
  Evaluating new KS density using the density matrix
  Evaluating density matrix
  Time summed over all CPUs for getting density from density matrix: real work        2.942 s, elapsed        3.000 s
  Integration grid: deviation in total charge (<rho> - N_e) =  -7.105427E-15
  Pulay mixing of updated and previous charge densities.
  Renormalizing the density to the exact electron count on the 3D integration grid.
  | Formal number of electrons (from input files) :      28.0000000000
  | Integrated number of electrons on 3D grid     :      28.0000173522
  | Charge integration error                      :       0.0000173522
  | Normalization factor for density and gradient :       0.9999993803

  Evaluating partitioned Hartree potential by multipole expansion.
  | Original multipole sum: apparent total charge =   0.554400E-13
  | Sum of charges compensated after spline to logarithmic grids =  -0.864447E-04
  | Analytical far-field extrapolation by fixed multipoles:
  | Hartree multipole sum: apparent total charge =  -0.000000E+00
  Summing up the Hartree potential.
  Time summed over all CPUs for potential: real work        0.603 s, elapsed        0.611 s
  | RMS charge density error from multipole expansion :   0.110393E-01
  | Average real-space part of the electrostatic potential :      0.29650867 eV

  Integrating Hamiltonian matrix: batch-based integration.
  Time summed over all CPUs for integration: real work        1.384 s, elapsed        1.412 s

  Updating Kohn-Sham eigenvalues and eigenvectors using ELSI and the (modified) LAPACK eigensolver.
  Starting LAPACK eigensolver
  Finished Cholesky decomposition
  | Time :     0.000 s
  Finished transformation to standard eigenproblem
  | Time :     0.000 s
  Finished solving standard eigenproblem
  | Time :     0.000 s
  Finished back-transformation of eigenvectors
  | Time :     0.000 s

  Obtaining occupation numbers and chemical potential using ELSI.
  | Chemical potential (Fermi level):    -5.13099354 eV
  What follows are estimated values for band gap, HOMO, LUMO, etc.
  | They are estimated on a discrete k-point grid and not necessarily exact.
  | For converged numbers, create a DOS and/or band structure plot on a denser k-grid.

  Highest occupied state (VBM) at     -5.62718085 eV (relative to internal zero)
  | Occupation number:      2.00000000
  | K-point:       1 at    0.000000    0.000000    0.000000 (in units of recip. lattice)

  Lowest unoccupied state (CBM) at    -4.98249202 eV (relative to internal zero)
  | Occupation number:      0.00000000
  | K-point:     105 at    0.000000    0.562500    0.562500 (in units of recip. lattice)

  ESTIMATED overall HOMO-LUMO gap:      0.64468884 eV between HOMO at k-point 1 and LUMO at k-point 105
  | This appears to be an indirect band gap.
  | Smallest direct gap :      2.55702164 eV for k_point 1 at    0.000000    0.000000    0.000000 (in units of recip. lattice)
  The gap value is above 0.2 eV. Unless you are using a very sparse k-point grid,
  this system is most likely an insulator or a semiconductor.

  Total energy components:
  | Sum of eigenvalues            :        -328.73136657 Ha       -8945.23561283 eV
  | XC energy correction          :         -41.76305917 Ha       -1136.43066091 eV
  | XC potential correction       :          53.93292714 Ha        1467.58961755 eV
  | Free-atom electrostatic energy:        -263.64579720 Ha       -7174.16715932 eV
  | Hartree energy correction     :          -0.52970884 Ha         -14.41411079 eV
  | Entropy correction            :          -0.00000000 Ha          -0.00000000 eV
  | ---------------------------
  | Total energy                  :        -580.73700463 Ha      -15802.65792630 eV
  | Total energy, T -> 0          :        -580.73700463 Ha      -15802.65792630 eV  <-- do not rely on this value for anything but (periodic) metals
  | Electronic free energy        :        -580.73700463 Ha      -15802.65792630 eV

  Derived energy quantities:
  | Kinetic energy                :         582.24900874 Ha       15843.80165166 eV
  | Electrostatic energy          :       -1121.22295420 Ha      -30510.02891705 eV
  | Energy correction for multipole
  | error in Hartree potential    :           0.01414004 Ha           0.38476998 eV
  | Sum of eigenvalues per atom                           :       -4472.61780642 eV
  | Total energy (T->0) per atom                          :       -7901.32896315 eV  <-- do not rely on this value for anything but (periodic) metals
  | Electronic free energy per atom                       :       -7901.32896315 eV

  Self-consistency convergence accuracy:
  | Change of charge density      :  0.3678E-03
  | Change of sum of eigenvalues  : -0.1369E+00 eV
  | Change of total energy        :  0.6828E-04 eV

  End self-consistency iteration #     6       :  max(cpu_time)    wall_clock(cpu1)
  | Time for this iteration                    :        2.223 s           2.228 s
  | Charge density update                      :        0.897 s           0.901 s
  | Density mixing & preconditioning           :        0.076 s           0.076 s
  | Hartree multipole update                   :        0.007 s           0.008 s
  | Hartree multipole summation                :        0.157 s           0.156 s
  | Integration                                :        0.360 s           0.360 s
  | Solution of K.-S. eqns.                    :        0.716 s           0.718 s
  | Total energy evaluation                    :        0.006 s           0.002 s

  Partial memory accounting:
  | Current value for overall tracked memory usage:
  |   Minimum:        9.306 MB (on task 0)
  |   Maximum:        9.306 MB (on task 0)
  |   Average:        9.306 MB
  | Peak value for overall tracked memory usage:
  |   Minimum:       16.073 MB (on task 3 after allocating gradient_basis_wave)
  |   Maximum:       16.334 MB (on task 1 after allocating gradient_basis_wave)
  |   Average:       16.249 MB
  | Largest tracked array allocation so far:
  |   Minimum:        7.828 MB (KS_eigenvector_complex on task 0)
  |   Maximum:        7.828 MB (KS_eigenvector_complex on task 0)
  |   Average:        7.828 MB
  Note:  These values currently only include a subset of arrays which are explicitly tracked.
  The "true" memory usage will be greater.
------------------------------------------------------------

------------------------------------------------------------
          Begin self-consistency iteration #    7

  Date     :  20201221, Time     :  165951.006
------------------------------------------------------------
  Evaluating new KS density using the density matrix
  Evaluating density matrix
  Time summed over all CPUs for getting density from density matrix: real work        2.678 s, elapsed        2.726 s
  Integration grid: deviation in total charge (<rho> - N_e) =  -2.131628E-14
  Pulay mixing of updated and previous charge densities.
  Renormalizing the density to the exact electron count on the 3D integration grid.
  | Formal number of electrons (from input files) :      28.0000000000
  | Integrated number of electrons on 3D grid     :      27.9999858773
  | Charge integration error                      :      -0.0000141227
  | Normalization factor for density and gradient :       1.0000005044

  Evaluating partitioned Hartree potential by multipole expansion.
  | Original multipole sum: apparent total charge =   0.386930E-13
  | Sum of charges compensated after spline to logarithmic grids =  -0.864123E-04
  | Analytical far-field extrapolation by fixed multipoles:
  | Hartree multipole sum: apparent total charge =  -0.000000E+00
  Summing up the Hartree potential.
  Time summed over all CPUs for potential: real work        0.708 s, elapsed        0.734 s
  | RMS charge density error from multipole expansion :   0.110619E-01
  | Average real-space part of the electrostatic potential :      0.29728900 eV

  Integrating Hamiltonian matrix: batch-based integration.
  Time summed over all CPUs for integration: real work        1.277 s, elapsed        1.285 s

  Updating Kohn-Sham eigenvalues and eigenvectors using ELSI and the (modified) LAPACK eigensolver.
  Starting LAPACK eigensolver
  Finished Cholesky decomposition
  | Time :     0.000 s
  Finished transformation to standard eigenproblem
  | Time :     0.000 s
  Finished solving standard eigenproblem
  | Time :     0.000 s
  Finished back-transformation of eigenvectors
  | Time :     0.000 s

  Obtaining occupation numbers and chemical potential using ELSI.
  | Chemical potential (Fermi level):    -5.12962816 eV
  What follows are estimated values for band gap, HOMO, LUMO, etc.
  | They are estimated on a discrete k-point grid and not necessarily exact.
  | For converged numbers, create a DOS and/or band structure plot on a denser k-grid.

[...]
  | XC energy correction          :         -41.76293648 Ha       -1136.42732237 eV
  | XC potential correction       :          53.93276283 Ha        1467.58514651 eV
  | Free-atom electrostatic energy:        -263.64579720 Ha       -7174.16715932 eV
  | Hartree energy correction     :          -0.52701881 Ha         -14.34091143 eV
  | Entropy correction            :          -0.00000000 Ha          -0.00000000 eV
  | ---------------------------
  | Total energy                  :        -580.73700399 Ha      -15802.65790884 eV
  | Total energy, T -> 0          :        -580.73700399 Ha      -15802.65790884 eV  <-- do not rely on this value for anything but (periodic) metals
  | Electronic free energy        :        -580.73700399 Ha      -15802.65790884 eV

  Derived energy quantities:
  | Kinetic energy                :         582.24522338 Ha       15843.69864670 eV
  | Electrostatic energy          :       -1121.21929089 Ha      -30509.92923318 eV
  | Energy correction for multipole
  | error in Hartree potential    :           0.01413859 Ha           0.38473070 eV
  | Sum of eigenvalues per atom                           :       -4472.65383112 eV
  | Total energy (T->0) per atom                          :       -7901.32895442 eV  <-- do not rely on this value for anything but (periodic) metals
  | Electronic free energy per atom                       :       -7901.32895442 eV

  Self-consistency convergence accuracy:
  | Change of charge density      :  0.2042E-04
  | Change of sum of eigenvalues  : -0.1163E-01 eV
  | Change of total energy        :  0.1866E-05 eV

  End self-consistency iteration #    11       :  max(cpu_time)    wall_clock(cpu1)
  | Time for this iteration                    :        2.287 s           2.298 s
  | Charge density update                      :        0.898 s           0.899 s
  | Density mixing & preconditioning           :        0.083 s           0.084 s
  | Hartree multipole update                   :        0.002 s           0.002 s
  | Hartree multipole summation                :        0.210 s           0.211 s
  | Integration                                :        0.339 s           0.346 s
  | Solution of K.-S. eqns.                    :        0.748 s           0.749 s
  | Total energy evaluation                    :        0.002 s           0.005 s

  Partial memory accounting:
  | Current value for overall tracked memory usage:
  |   Minimum:        9.306 MB (on task 0)
  |   Maximum:        9.306 MB (on task 0)
  |   Average:        9.306 MB
  | Peak value for overall tracked memory usage:
  |   Minimum:       16.074 MB (on task 3 after allocating gradient_basis_wave)
  |   Maximum:       16.334 MB (on task 1 after allocating gradient_basis_wave)
  |   Average:       16.250 MB
  | Largest tracked array allocation so far:
  |   Minimum:        7.828 MB (KS_eigenvector_complex on task 0)
  |   Maximum:        7.828 MB (KS_eigenvector_complex on task 0)
  |   Average:        7.828 MB
  Note:  These values currently only include a subset of arrays which are explicitly tracked.
  The "true" memory usage will be greater.
------------------------------------------------------------

------------------------------------------------------------
          Begin self-consistency iteration #   12

  Date     :  20201221, Time     :  170002.282
------------------------------------------------------------
  Evaluating new KS density using the density matrix
  Evaluating density matrix
  Time summed over all CPUs for getting density from density matrix: real work        2.824 s, elapsed        2.876 s
  Integration grid: deviation in total charge (<rho> - N_e) =  -7.105427E-15
  Pulay mixing of updated and previous charge densities.
  Renormalizing the density to the exact electron count on the 3D integration grid.
  | Formal number of electrons (from input files) :      28.0000000000
  | Integrated number of electrons on 3D grid     :      28.0000003900
  | Charge integration error                      :       0.0000003900
  | Normalization factor for density and gradient :       0.9999999861

  Evaluating partitioned Hartree potential by multipole expansion.
  | Original multipole sum: apparent total charge =   0.382112E-14
  | Sum of charges compensated after spline to logarithmic grids =  -0.861711E-04
  | Analytical far-field extrapolation by fixed multipoles:
  | Hartree multipole sum: apparent total charge =  -0.000000E+00
  Summing up the Hartree potential.
  Time summed over all CPUs for potential: real work        0.614 s, elapsed        0.625 s
  | RMS charge density error from multipole expansion :   0.110541E-01
  | Average real-space part of the electrostatic potential :      0.29582549 eV

  Integrating Hamiltonian matrix: batch-based integration.
  Time summed over all CPUs for integration: real work        1.321 s, elapsed        1.336 s

  Updating Kohn-Sham eigenvalues and eigenvectors using ELSI and the (modified) LAPACK eigensolver.
  Starting LAPACK eigensolver
  Finished Cholesky decomposition
  | Time :     0.000 s
  Finished transformation to standard eigenproblem
  | Time :     0.001 s
  Finished solving standard eigenproblem
  | Time :     0.000 s
  Finished back-transformation of eigenvectors
  | Time :     0.000 s

  Obtaining occupation numbers and chemical potential using ELSI.
  | Chemical potential (Fermi level):    -5.13076651 eV
  What follows are estimated values for band gap, HOMO, LUMO, etc.
  | They are estimated on a discrete k-point grid and not necessarily exact.
  | For converged numbers, create a DOS and/or band structure plot on a denser k-grid.

  Highest occupied state (VBM) at     -5.62653025 eV (relative to internal zero)
  | Occupation number:      2.00000000
  | K-point:       1 at    0.000000    0.000000    0.000000 (in units of recip. lattice)

  Lowest unoccupied state (CBM) at    -4.98233940 eV (relative to internal zero)
  | Occupation number:      0.00000000
  | K-point:     105 at    0.000000    0.562500    0.562500 (in units of recip. lattice)

  ESTIMATED overall HOMO-LUMO gap:      0.64419085 eV between HOMO at k-point 1 and LUMO at k-point 105
  | This appears to be an indirect band gap.
  | Smallest direct gap :      2.55682564 eV for k_point 1 at    0.000000    0.000000    0.000000 (in units of recip. lattice)
  The gap value is above 0.2 eV. Unless you are using a very sparse k-point grid,
  this system is most likely an insulator or a semiconductor.

  Total energy components:
  | Sum of eigenvalues            :        -328.73402629 Ha       -8945.30798773 eV
  | XC energy correction          :         -41.76293565 Ha       -1136.42729995 eV
  | XC potential correction       :          53.93276175 Ha        1467.58511703 eV
  | Free-atom electrostatic energy:        -263.64579720 Ha       -7174.16715932 eV
  | Hartree energy correction     :          -0.52700658 Ha         -14.34057879 eV
  | Entropy correction            :          -0.00000000 Ha          -0.00000000 eV
  | ---------------------------
  | Total energy                  :        -580.73700398 Ha      -15802.65790876 eV
  | Total energy, T -> 0          :        -580.73700398 Ha      -15802.65790876 eV  <-- do not rely on this value for anything but (periodic) metals
  | Electronic free energy        :        -580.73700398 Ha      -15802.65790876 eV

  Derived energy quantities:
  | Kinetic energy                :         582.24521786 Ha       15843.69849653 eV
  | Electrostatic energy          :       -1121.21928619 Ha      -30509.92910534 eV
  | Energy correction for multipole
  | error in Hartree potential    :           0.01413845 Ha           0.38472666 eV
  | Sum of eigenvalues per atom                           :       -4472.65399386 eV
  | Total energy (T->0) per atom                          :       -7901.32895438 eV  <-- do not rely on this value for anything but (periodic) metals
  | Electronic free energy per atom                       :       -7901.32895438 eV

  Self-consistency convergence accuracy:
  | Change of charge density      :  0.4258E-06
  | Change of sum of eigenvalues  : -0.3255E-03 eV
  | Change of total energy        :  0.8379E-07 eV

  Preliminary charge convergence reached. Turning off preconditioner.

  Writing Kohn-Sham eigenvalues.
  K-point:       1 at    0.000000    0.000000    0.000000 (in units of recip. lattice)

  State    Occupation    Eigenvalue [Ha]    Eigenvalue [eV]
      1       2.00000         -65.762829        -1789.49763
      2       2.00000         -65.762829        -1789.49763
      3       2.00000          -5.121960         -139.37563
      4       2.00000          -5.121705         -139.36869
      5       2.00000          -3.505809          -95.39791
      6       2.00000          -3.505809          -95.39791
      7       2.00000          -3.505809          -95.39791
      8       2.00000          -3.505241          -95.38246
      9       2.00000          -3.505241          -95.38246
     10       2.00000          -3.505241          -95.38246
     11       2.00000          -0.641667          -17.46065
     12       2.00000          -0.206771           -5.62653
     13       2.00000          -0.206771           -5.62653
     14       2.00000          -0.206771           -5.62653
     15       0.00000          -0.112810           -3.06970
     16       0.00000          -0.112810           -3.06970
     17       0.00000          -0.112810           -3.06970
     18       0.00000          -0.090763           -2.46980
     19       0.00000           0.082854            2.25457
     20       0.00000           0.082854            2.25457

  What follows are estimated values for band gap, HOMO, LUMO, etc.
  | They are estimated on a discrete k-point grid and not necessarily exact.
  | For converged numbers, create a DOS and/or band structure plot on a denser k-grid.

  Highest occupied state (VBM) at     -5.62653025 eV (relative to internal zero)
  | Occupation number:      2.00000000
  | K-point:       1 at    0.000000    0.000000    0.000000 (in units of recip. lattice)

  Lowest unoccupied state (CBM) at    -4.98233940 eV (relative to internal zero)
  | Occupation number:      0.00000000
  | K-point:     105 at    0.000000    0.562500    0.562500 (in units of recip. lattice)

  ESTIMATED overall HOMO-LUMO gap:      0.64419085 eV between HOMO at k-point 1 and LUMO at k-point 105
  | This appears to be an indirect band gap.
  | Smallest direct gap :      2.55682564 eV for k_point 1 at    0.000000    0.000000    0.000000 (in units of recip. lattice)
  The gap value is above 0.2 eV. Unless you are using a very sparse k-point grid,
  this system is most likely an insulator or a semiconductor.

  Self-consistency cycle converged.

  End self-consistency iteration #    12       :  max(cpu_time)    wall_clock(cpu1)
  | Time for this iteration                    :        2.243 s           2.245 s
  | Charge density update                      :        0.913 s           0.913 s
  | Density mixing                             :        0.094 s           0.096 s
  | Hartree multipole update                   :        0.001 s           0.001 s
  | Hartree multipole summation                :        0.162 s           0.162 s
  | Integration                                :        0.344 s           0.344 s
  | Solution of K.-S. eqns.                    :        0.722 s           0.722 s
  | Total energy evaluation                    :        0.003 s           0.003 s

  Partial memory accounting:
  | Current value for overall tracked memory usage:
  |   Minimum:        9.306 MB (on task 0)
  |   Maximum:        9.306 MB (on task 0)
  |   Average:        9.306 MB
  | Peak value for overall tracked memory usage:
  |   Minimum:       16.074 MB (on task 3 after allocating gradient_basis_wave)
  |   Maximum:       16.334 MB (on task 1 after allocating gradient_basis_wave)
  |   Average:       16.250 MB
  | Largest tracked array allocation so far:
  |   Minimum:        7.828 MB (KS_eigenvector_complex on task 0)
  |   Maximum:        7.828 MB (KS_eigenvector_complex on task 0)
  |   Average:        7.828 MB
  Note:  These values currently only include a subset of arrays which are explicitly tracked.
  The "true" memory usage will be greater.
------------------------------------------------------------

  Energy and forces in a compact form:
  | Total energy uncorrected      :         -0.158026579087592E+05 eV
  | Total energy corrected        :         -0.158026579087592E+05 eV  <-- do not rely on this value for anything but (periodic) metals
  | Electronic free energy        :         -0.158026579087592E+05 eV

  ------------------------------------ 
  Start decomposition of the XC Energy 
  ------------------------------------ 
  X and C from original XC functional choice 
  Hartree-Fock Energy :          0.000000000 Ha              0.000000000 eV
  X Energy            :        -40.670207184 Ha          -1106.692645378 eV
  C Energy            :         -1.092728471 Ha            -29.734654574 eV
  Total XC Energy     :        -41.762935655 Ha          -1136.427299952 eV
  ------------------------------------ 
  LDA X and C from self-consistent density 
  X Energy LDA        :        -37.615764704 Ha          -1023.577036630 eV
  C Energy LDA        :         -2.145368581 Ha            -58.378449362 eV
  ------------------------------------ 
  End decomposition of the XC Energy 
  ------------------------------------ 

------------------------------------------------------------

------------------------------------------------------------------------------
  Final output of selected total energy values:

  The following output summarizes some interesting total energy values
  at the end of a run (AFTER all relaxation, molecular dynamics, etc.).

  | Total energy of the DFT / Hartree-Fock s.c.f. calculation      :         -15802.657908759 eV
  | Final zero-broadening corrected energy (caution - metals only) :         -15802.657908759 eV
  | For reference only, the value of 1 Hartree used in FHI-aims is :             27.211384500 eV
  | For reference only, the overall average (free atom contribution
  | + realspace contribution) of the electrostatic potential after
  | s.c.f. convergence is                                          :            -12.560909509 eV

  Before relying on these values, please be sure to understand exactly which
  total energy value is referred to by a given number. Different objects may
  all carry the same name 'total energy'. Definitions:

  Total energy of the DFT / Hartree-Fock s.c.f. calculation:
  | Note that this energy does not include ANY quantities calculated after the
  | s.c.f. cycle, in particular not ANY RPA, MP2, etc. many-body perturbation terms.

  Final zero-broadening corrected energy:
  | For metallic systems only, a broadening of the occupation numbers at the Fermi
  | level can be extrapolated back to zero broadening by an electron-gas inspired
  | formula. For all systems that are not real metals, this value can be
  | meaningless and should be avoided.

------------------------------------------------------------------------------
  Methods described in the following list of references were used in this FHI-aims run.
  If you publish the results, please make sure to cite these reference if they apply.
  FHI-aims is an academic code, and for our developers (often, Ph.D. students
  and postdocs), scientific credit in the community is essential.
  Thank you for helping us!

  For any use of FHI-aims, please cite:

    Volker Blum, Ralf Gehrke, Felix Hanke, Paula Havu, Ville Havu,
    Xinguo Ren, Karsten Reuter, and Matthias Scheffler
    'Ab initio molecular simulations with numeric atom-centered orbitals'
    Computer Physics Communications 180, 2175-2196 (2009)
    http://dx.doi.org/10.1016/j.cpc.2009.06.022


  The provided symmetry information was generated with SPGlib:

    Atsushi Togo, Yusuke Seto, Dimitar Pashov
    SPGlib 1.7.3 obtained from http://spglib.sourceforge.net
    Copyright (C) 2008 Atsushi Togo


  The ELSI infrastructure was used in your run to solve the Kohn-Sham electronic structure.
  Please check out http://elsi-interchange.org to learn more.
  If scalability is important for your project, please acknowledge ELSI by citing:

    V. W-z. Yu, F. Corsetti, A. Garcia, W. P. Huhn, M. Jacquelin, W. Jia,
    B. Lange, L. Lin, J. Lu, W. Mi, A. Seifitokaldani, A. Vazquez-Mayagoitia,
    C. Yang, H. Yang, and V. Blum
    'ELSI: A unified software interface for Kohn-Sham electronic structure solvers'
    Computer Physics Communications 222, 267-285 (2018).
    http://dx.doi.org/10.1016/j.cpc.2017.09.007


  For the real-space grid partitioning and parallelization used in this calculation, please cite:

    Ville Havu, Volker Blum, Paula Havu, and Matthias Scheffler,
    'Efficient O(N) integration for all-electron electronic structure calculation'
    'using numerically tabulated basis functions'
    Journal of Computational Physics 228, 8367-8379 (2009).
    http://dx.doi.org/10.1016/j.jcp.2009.08.008

  Of course, there are many other important community references, e.g., those cited in the
  above references. Our list is limited to references that describe implementations in the
  FHI-aims code. The reason is purely practical (length of this list) - please credit others as well.

------------------------------------------------------------
          Leaving FHI-aims.
          Date     :  20201221, Time     :  170004.546

          Computational steps:
          | Number of self-consistency cycles          :           12
          | Number of SCF (re)initializations          :            1

          Detailed time accounting                     :  max(cpu_time)    wall_clock(cpu1)
          | Total time                                 :       29.000 s          29.183 s
          | Preparation time                           :        0.205 s           0.203 s
          | Boundary condition initalization           :        0.155 s           0.156 s
          | Grid partitioning                          :        0.037 s           0.035 s
          | Preloading free-atom quantities on grid    :        0.124 s           0.124 s
          | Free-atom superposition energy             :        0.014 s           0.014 s
          | Total time for integrations                :        4.946 s           4.964 s
          | Total time for solution of K.-S. equations :        9.630 s           9.656 s
          | Total time for density update              :       10.608 s          10.612 s
          | Total time for mixing & preconditioning    :        1.085 s           1.099 s
          | Total time for Hartree multipole update    :        0.031 s           0.038 s
          | Total time for Hartree multipole sum       :        2.044 s           2.050 s
          | Total time for total energy evaluation     :        0.049 s           0.034 s
          | Total time for scaled ZORA corrections     :        0.000 s           0.000 s

          Partial memory accounting:
          | Residual value for overall tracked memory usage across tasks:     0.000000 MB (should be 0.000000 MB)
          | Peak values for overall tracked memory usage:
          |   Minimum:       16.074 MB (on task 3 after allocating gradient_basis_wave)
          |   Maximum:       16.334 MB (on task 1 after allocating gradient_basis_wave)
          |   Average:       16.250 MB
          | Largest tracked array allocation:
          |   Minimum:        7.828 MB (KS_eigenvector_complex on task 0)
          |   Maximum:        7.828 MB (KS_eigenvector_complex on task 0)
          |   Average:        7.828 MB
          Note:  These values currently only include a subset of arrays which are explicitly tracked.
          The "true" memory usage will be greater.

          Have a nice day.
------------------------------------------------------------
