------------------------------------------------------------
          Invoking FHI-aims ...

          When using FHI-aims, please cite the following reference:

          Volker Blum, Ralf Gehrke, Felix Hanke, Paula Havu,
          Ville Havu, Xinguo Ren, Karsten Reuter, and Matthias Scheffler,
          'Ab Initio Molecular Simulations with Numeric Atom-Centered Orbitals',
          Computer Physics Communications 180, 2175-2196 (2009)

          For any questions about FHI-aims, please visit the aimsclub website
          with its forums and wiki. Contributions to both the forums and the
          wiki are warmly encouraged - they are for you, and everyone is welcome there.

------------------------------------------------------------



  Date     :  20200420, Time     :  204038.787
  Time zero on CPU 1             :   0.118521000000000E+00  s.
  Internal wall clock time zero  :           356647238.787  s.

  FHI-aims created a unique identifier for this run for later identification
  aims_uuid : 5E089F62-803F-43DD-AE67-8A660BBC111F

  Build configuration of the current instance of FHI-aims
  -------------------------------------------------------
  FHI-aims version      : 200112
  Commit number         : 23daeca3f
  CMake host system     : Linux-3.10.0-693.21.1.el7.x86_64
  CMake version         : 3.13.3
  Fortran compiler      : /sw/installed/impi/2018.4.274-iccifort-2019.1.144-GCC-8.2.0-2.31.1/bin64/mpiifort (Intel) version 19.0.0.20181018
  Fortran compiler flags: -O3 -ip -fp-model precise
  C compiler            : /sw/installed/impi/2018.4.274-iccifort-2019.1.144-GCC-8.2.0-2.31.1/bin64/mpiicc (Intel) version 19.0.0.20181018
  C compiler flags      : -O3 -ip -fp-model precise
  Architecture          :
  Using MPI
  Using Scalapack
  Using C files
  Using LibXC
  Using SPGlib
  Using i-PI
  Using RLSY
  Linking against: /sw/installed/imkl/2019.1.144-iimpi-2019a/mkl/lib/intel64/libmkl_intel_lp64.so
                   /sw/installed/imkl/2019.1.144-iimpi-2019a/mkl/lib/intel64/libmkl_sequential.so
                   /sw/installed/imkl/2019.1.144-iimpi-2019a/mkl/lib/intel64/libmkl_core.so
                   /sw/installed/imkl/2019.1.144-iimpi-2019a/mkl/lib/intel64/libmkl_blacs_intelmpi_lp64.so
                   /sw/installed/imkl/2019.1.144-iimpi-2019a/mkl/lib/intel64/libmkl_scalapack_lp64.so

  Using       24 parallel tasks.
  Task        0 on host taurusi6601.taurus.hrsk.tu-dresden.de reporting.
  Task        1 on host taurusi6601.taurus.hrsk.tu-dresden.de reporting.
  Task        2 on host taurusi6601.taurus.hrsk.tu-dresden.de reporting.
  Task        3 on host taurusi6601.taurus.hrsk.tu-dresden.de reporting.
  Task        4 on host taurusi6601.taurus.hrsk.tu-dresden.de reporting.
  Task        5 on host taurusi6601.taurus.hrsk.tu-dresden.de reporting.
  Task        6 on host taurusi6601.taurus.hrsk.tu-dresden.de reporting.
  Task        7 on host taurusi6601.taurus.hrsk.tu-dresden.de reporting.
  Task        8 on host taurusi6601.taurus.hrsk.tu-dresden.de reporting.
  Task        9 on host taurusi6601.taurus.hrsk.tu-dresden.de reporting.
  Task       10 on host taurusi6601.taurus.hrsk.tu-dresden.de reporting.
  Task       11 on host taurusi6601.taurus.hrsk.tu-dresden.de reporting.
  Task       12 on host taurusi6601.taurus.hrsk.tu-dresden.de reporting.
  Task       13 on host taurusi6601.taurus.hrsk.tu-dresden.de reporting.
  Task       14 on host taurusi6601.taurus.hrsk.tu-dresden.de reporting.
  Task       15 on host taurusi6601.taurus.hrsk.tu-dresden.de reporting.
  Task       16 on host taurusi6601.taurus.hrsk.tu-dresden.de reporting.
  Task       17 on host taurusi6601.taurus.hrsk.tu-dresden.de reporting.
  Task       18 on host taurusi6601.taurus.hrsk.tu-dresden.de reporting.
  Task       19 on host taurusi6601.taurus.hrsk.tu-dresden.de reporting.
  Task       20 on host taurusi6601.taurus.hrsk.tu-dresden.de reporting.
  Task       21 on host taurusi6601.taurus.hrsk.tu-dresden.de reporting.
  Task       22 on host taurusi6601.taurus.hrsk.tu-dresden.de reporting.
  Task       23 on host taurusi6601.taurus.hrsk.tu-dresden.de reporting.

  Performing system and environment tests:
  | Environment variable OMP_NUM_THREADS correctly set to 1.
  | Maximum stacksize for task 0: unlimited
  | Maximum stacksize for task 1: unlimited
  | Maximum stacksize for task 2: unlimited
  | Maximum stacksize for task 3: unlimited
  | Maximum stacksize for task 4: unlimited
  | Maximum stacksize for task 5: unlimited
  | Maximum stacksize for task 6: unlimited
  | Maximum stacksize for task 7: unlimited
  | Maximum stacksize for task 8: unlimited
  | Maximum stacksize for task 9: unlimited
  | Maximum stacksize for task 10: unlimited
  | Maximum stacksize for task 11: unlimited
  | Maximum stacksize for task 12: unlimited
  | Maximum stacksize for task 13: unlimited
  | Maximum stacksize for task 14: unlimited
  | Maximum stacksize for task 15: unlimited
  | Maximum stacksize for task 16: unlimited
  | Maximum stacksize for task 17: unlimited
  | Maximum stacksize for task 18: unlimited
  | Maximum stacksize for task 19: unlimited
  | Maximum stacksize for task 20: unlimited
  | Maximum stacksize for task 21: unlimited
  | Maximum stacksize for task 22: unlimited
  | Maximum stacksize for task 23: unlimited
  | Current stacksize for task 0: unlimited
  | Current stacksize for task 1: unlimited
  | Current stacksize for task 2: unlimited
  | Current stacksize for task 3: unlimited
  | Current stacksize for task 4: unlimited
  | Current stacksize for task 5: unlimited
  | Current stacksize for task 6: unlimited
  | Current stacksize for task 7: unlimited
  | Current stacksize for task 8: unlimited
  | Current stacksize for task 9: unlimited
  | Current stacksize for task 10: unlimited
  | Current stacksize for task 11: unlimited
  | Current stacksize for task 12: unlimited
  | Current stacksize for task 13: unlimited
  | Current stacksize for task 14: unlimited
  | Current stacksize for task 15: unlimited
  | Current stacksize for task 16: unlimited
  | Current stacksize for task 17: unlimited
  | Current stacksize for task 18: unlimited
  | Current stacksize for task 19: unlimited
  | Current stacksize for task 20: unlimited
  | Current stacksize for task 21: unlimited
  | Current stacksize for task 22: unlimited
  | Current stacksize for task 23: unlimited
  | Checking for scalapack...
  | Testing pdtran()...
  | All pdtran() tests passed.

  Obtaining array dimensions for all initial allocations:
  
  -----------------------------------------------------------------------
  Parsing control.in (first pass over file, find array dimensions only).
  The contents of control.in will be repeated verbatim below
  unless switched off by setting 'verbatim_writeout .false.' .
  in the first line of control.in .
  -----------------------------------------------------------------------
  
  #===============================================================================
  # FHI-aims file: ./control.in
  # Created using the Atomic Simulation Environment (ASE)
  # Thu Apr  2 11:27:09 2020
  #===============================================================================
  xc                                 pbe
  # include_spin_orbit
  # vdw_correction_hirshfeld
  many_body_dispersion
  spin                               none
  k_grid 	 	 5 5 4
  relativistic                       atomic_zora scalar
  energy_tolerance 1e-2
  harmonic_length_scale  0.015
  ### SCF settings
  adjust_scf 	 always 	 3
  # frozen_core_scf 	 .true.
  # charge_mix_param  0.05
  # occupation_type 	 gaussian 	 0.01
  # sc_accuracy_eev   1E-3 	 	 # sum of eigenvalues convergence
  # sc_accuracy_etot  1E-6 	 	 # total energy convergence
  # sc_accuracy_rho   1E-3 	 	 # electron density convergence
  # elsi_restart 	 read_and_write 	 1000
  ### geometry optimisation section
  relax_geometry 	 bfgs 	 1E-2
  relax_unit_cell 	 full
  #===============================================================================
  
  ################################################################################
  #
  #  FHI-aims code project
  # Volker Blum, Fritz Haber Institute Berlin, 2009
  #
  #  Suggested "tight" defaults for Pd atom (to be pasted into control.in file)
  #
  ################################################################################
    species        Pd
  #     global species definitions
      nucleus             46
      mass                106.42
  #
      l_hartree           6
  #
      cut_pot             4.0  2.0  1.0
      basis_dep_cutoff    1e-4
  #
      radial_base         62 7.0
      radial_multiplier   2
      angular_grids specified
        division   0.3627   50
        division   0.7349  110
        division   1.0624  194
        division   1.2496  302
        division   1.6740  434
  #      division   2.0126  590
  #      division   2.0830  770
  #      division   2.7936 1202
  #       outer_grid  974
        outer_grid  434
  ################################################################################
  #
  #  Definition of "minimal" basis
  #
  ################################################################################
  #     valence basis states
      valence      5  s   1.
      valence      4  p   6.
      valence      4  d   9.
  #     ion occupancy
      ion_occ     5  s   0.
      ion_occ     4  p   6.
      ion_occ     4  d   8.
  ################################################################################
  #
  #  Suggested additional basis functions. For production calculations,
  #  uncomment them one after another (the most important basis functions are
  #  listed first).
  #
  #  Constructed for dimers: 2.0 A, 2.275 A, 2.75 A, 3.75 A
  #
  ################################################################################
  #  "First tier" - max. impr. -120.76  meV, min. impr. -5.71 meV
       ionic 5 p auto
       hydro 4 f 8
       hydro 5 g 10
       hydro 3 s 2.6
       hydro 3 d 2.5
  #  "Second tier" - max. impr. -5.00  meV, min. impr. -0.62 meV
  #     hydro 5 f 17.2
  #     hydro 6 h 14
  #     hydro 4 d 4
  #     hydro 5 f 7.6
  #     hydro 3 p 3.3
  #     hydro 4 s 9.4
  #  "Third tier" - max. impr. -0.54  meV, min. impr. -0.14 meV
  #     hydro 4 f 20
  #     hydro 5 g 12.8
  #     hydro 5 d 9.8
  #     hydro 6 h 15.2
  #     hydro 5 s 10
  #     hydro 6 p 9.8
  #  "Fourth tier" - max. impr. -0.15  meV, min. impr. -0.05 meV
  #     hydro 5 f 9.2
  #     hydro 2 s 5.6
  #     hydro 5 f 43.2
  #     hydro 5 d 13.2
  #     hydro 5 g 14
  #     hydro 4 p 4.7
  ################################################################################
  #
  #  FHI-aims code project
  # Volker Blum, Fritz Haber Institute Berlin, 2009
  #
  #  Suggested "tight" defaults for Se atom (to be pasted into control.in file)
  #
  ################################################################################
    species        Se
  #     global species definitions
      nucleus             34
      mass                78.96
  #
      l_hartree           6
  #
      cut_pot             4.0          2.0  1.0
      basis_dep_cutoff    1e-4
  #
      radial_base         55 7.0
      radial_multiplier   2
      angular_grids       specified
        division   0.0830  110
        division   0.1357  194
        division   0.7377  302
        division   0.8610  434
  #      division   0.9640  590
  #      division   1.0773  770
  #      division   2.5539  974
  #      outer_grid  974
        outer_grid  434
  ################################################################################
  #
  #  Definition of "minimal" basis
  #
  ################################################################################
  #     valence basis states
      valence      4  s   2.
      valence      4  p   4.
      valence      3  d  10.
  #     ion occupancy
      ion_occ      4  s   1.
      ion_occ      4  p   3.
      ion_occ      3  d  10.
  ################################################################################
  #
  #  Suggested additional basis functions. For production calculations,
  #  uncomment them one after another (the most important basis functions are
  #  listed first).
  #
  #  Constructed for dimers: 1.85 A, 2.15 A, 2.50 A, 3.00 A, 4.00 A
  #
  ################################################################################
  #  "First tier" - improvements: -336.21 meV to -36.85 meV
       hydro 3 d 4.3
       hydro 2 p 1.6
       hydro 4 f 7.2
       ionic 4 s auto
  #  "Second tier" - improvements: -14.39 meV to -1.49 meV
  #     hydro 5 g 10.4
  #     hydro 4 p 4.5
  #     hydro 4 d 6.2
  #     hydro 4 f 11.2
  #     hydro 1 s 0.65
  #     hydro 6 h 15.2
  #  "Third tier" - improvements: -0.46 meV and below
  #     hydro 5 g 14.4
  #     ionic 4 d auto
  #     hydro 4 f 22.4
  #     hydro 5 f 7.4
  #     hydro 5 p 8
  #     hydro 5 s 9.4
  #  "Fourth tier" - improvements: -0.12 meV and below
  #     hydro 5 d 11.6
  #     hydro 6 h 18
  #     hydro 4 p 4
  #     hydro 5 f 16
  #     hydro 4 s 3.9
  #
  #
  
  -----------------------------------------------------------------------
  Completed first pass over input file control.in .
  -----------------------------------------------------------------------
  
  
  -----------------------------------------------------------------------
  Parsing geometry.in (first pass over file, find array dimensions only).
  The contents of geometry.in will be repeated verbatim below
  unless switched off by setting 'verbatim_writeout .false.' .
  in the first line of geometry.in .
  -----------------------------------------------------------------------
  
  #
  # This is the geometry file that corresponds to the current relaxation step.
  # If you do not want this file to be written, set the "write_restart_geometry" flag to .false.
  #  aims_uuid : 18DD5C0A-6AFA-4D30-A04E-DC7789BFDC14
  #
  lattice_vector      5.87988861      0.00000000      0.00000000
  lattice_vector      0.00000000      5.97252454      0.00000000
  lattice_vector      0.00000000      0.00000000      7.29505675
  atom_frac       0.50432490      0.00434088      0.00431745 Pd
  atom_frac       0.00432879      0.00435293      0.50432421 Pd
  atom_frac       0.00432959      0.50429950      0.00426954 Pd
  atom_frac       0.50432641      0.50431643      0.50437273 Pd
  atom_frac       0.61627015      0.12155572      0.40482715 Se
  atom_frac       0.89228757      0.88702864      0.90477446 Se
  atom_frac       0.11626684      0.38706225      0.60386573 Se
  atom_frac       0.39238460      0.62154744      0.10384119 Se
  atom_frac       0.39238307      0.88701074      0.60383256 Se
  atom_frac       0.11625065      0.12153728      0.10379419 Se
  atom_frac       0.89229593      0.62158681      0.40480063 Se
  atom_frac       0.61629233      0.38710220      0.90472099 Se
  #
  # What follows is the current estimated Hessian matrix constructed by the BFGS algorithm.
  # This is NOT the true Hessian matrix of the system.
  # If you do not want this information here, switch it off using the "hessian_to_restart_geometry" keyword.
  #
  trust_radius             0.0122424362
  hessian_block                1       1           5.971463          -0.086232          -2.407300          -0.086232           6.99133
  hessian_block                1       2           0.056737           0.633124           0.232209           0.315170           0.77033
  hessian_block                1       3           0.072976           0.487277          -0.028884          -0.144190          -0.05813
  hessian_block                1       4           0.541304          -0.005068          -0.405578           0.167117          -0.43303
  hessian_block                1       5          -0.220060          -0.206588          -0.047130          -0.745720           0.98629
  hessian_block                1       6          -1.930008          -0.074674           0.588550           0.758359          -1.20880
  hessian_block                1       7          -0.445377           1.172229           1.578921           0.211972           0.11172
  hessian_block                1       8           0.299501          -0.830426          -0.036009          -0.329640          -2.41023
  hessian_block                1       9           0.056482          -0.052233           0.313046           0.036438          -1.86113
  hessian_block                1      10          -2.199811           0.582451           0.680098          -0.021947          -0.45502
  hessian_block                1      11           0.015357          -1.549733          -1.681553          -0.030690           0.48613
  hessian_block                1      12          -0.652653          -0.070126           1.213634          -0.130632          -1.27242
  hessian_block                2       2           6.096329           0.551881           2.205103           0.551881           7.49168
  hessian_block                2       3           0.874611           0.770843           0.442166          -0.341954          -0.39930
  hessian_block                2       4           0.237390           0.316343           0.385043          -0.346636           0.47475
  hessian_block                2       5          -1.918545          -0.243719          -1.197805           0.742652          -0.52492
  hessian_block                2       6          -0.797310          -0.842674          -0.252762          -0.557224          -0.73023
  hessian_block                2       7          -0.159709           0.466703          -1.171183          -0.479192          -1.99329
  hessian_block                2       8          -0.309743           0.698742           0.122827          -0.155054          -0.21352
  hessian_block                2       9          -2.138232           1.196351          -0.853996           0.057767          -1.51207
  hessian_block                2      10           0.553276          -0.097482           0.478235           0.241747           0.02104
  hessian_block                2      11          -0.553419          -2.275873           0.634643          -0.495464          -2.35839
  hessian_block                2      12          -0.375474          -0.856289          -0.959587           0.148350           0.62095
  hessian_block                3       3           6.653179          -0.451258           2.480809          -0.451258           6.31268
  hessian_block                3       4           0.510412          -0.271390          -0.057726          -0.204964           0.12453
  hessian_block                3       5          -0.650507           0.130287          -0.373530          -0.036696           0.37196
  hessian_block                3       6          -1.112222           0.759612          -0.615808          -0.023692          -1.99039
  hessian_block                3       7          -0.516056           0.210132           0.389325           0.268802           0.13079
  hessian_block                3       8          -2.271431          -0.307866          -1.160557          -0.732712          -0.76045
  hessian_block                3       9          -0.298683           0.179694           0.186352          -0.022644          -0.12732
  hessian_block                3      10           0.827197           0.353183           0.200427           1.266846          -1.95791
  hessian_block                3      11           0.079708           0.091462          -0.426190          -0.760313          -0.08840
  hessian_block                3      12          -2.603274          -0.207714          -0.688007          -0.561491           0.08899
  hessian_block                4       4           6.073914           0.074500          -2.058388           0.074500           6.80952
  hessian_block                4       5          -0.702305           0.097642           0.159691          -0.032286          -2.83278
  hessian_block                4       6          -0.245566           0.015753          -0.125548           0.035292           0.19221
  hessian_block                4       7          -2.560319          -0.477575           1.041903          -0.021105          -0.31020
  hessian_block                4       8          -0.125601           1.186462           0.294507           0.114624          -0.25306
  hessian_block                4       9          -0.210225           1.361869           0.374494           0.721792          -1.51248
  hessian_block                4      10          -0.055500          -0.263491          -0.107831          -0.046630           0.26454
  hessian_block                4      11          -1.269237          -0.694467           0.440932          -1.090294          -1.09518
  hessian_block                4      12          -0.628361          -0.916216          -0.215428           0.204225           0.21820
  hessian_block                5       5           6.084618           0.115152          -1.020795           0.115152           7.76834
  hessian_block                5       6           0.555469           0.149252          -0.537733          -0.266742          -1.43678
  hessian_block                5       7           0.011387           1.508357           1.604929          -0.936904           0.58014
  hessian_block                5       8          -0.347146          -1.630108           0.457675           0.733047          -0.30120
  hessian_block                5       9          -2.130882          -1.231637           2.143117          -0.638551          -3.43518
  hessian_block                5      10          -0.303884           0.282432          -0.169746           0.201869           0.55979
  hessian_block                5      11           0.213861          -1.125426          -1.681456           1.651232           0.23860
  hessian_block                5      12           0.973906           2.004033           0.774355          -0.636727          -0.32726
  hessian_block                6       6           6.280520           0.433888           2.004534           0.433888           7.51827
  hessian_block                6       7          -0.396804          -1.255171           1.517117           0.497779           0.56327
  hessian_block                6       8          -0.580085           1.231903           0.630829           0.253220           0.52633
  hessian_block                6       9          -0.200480           0.621008           0.273040           0.536834           2.04379
  hessian_block                6      10          -2.058432          -1.388063          -3.734082          -1.068363          -2.82975
  hessian_block                6      11           1.077347           1.432973          -1.758851          -0.309207          -0.67084
  hessian_block                6      12           0.973488          -1.022531           1.439844          -0.351426          -0.33005
  hessian_block                7       7           7.854832          -0.811943           1.960556          -0.811943           6.82349
  hessian_block                7       8           0.195402          -0.185914          -0.086652           0.172347          -0.76248
  hessian_block                7       9           1.026812           0.278549          -0.086580          -3.124792          -0.18151
  hessian_block                7      10          -0.420273          -0.359541          -0.415609          -0.493903          -0.46134
  hessian_block                7      11          -4.607950           1.965189          -2.550855           2.433586          -3.19520
  hessian_block                7      12           1.583964          -0.427686           0.749345           0.200036           0.34162
  hessian_block                8       8           6.971793          -0.394005          -0.795681          -0.394005           7.04418
  hessian_block                8       9           1.292697          -0.454043           0.233491           0.487210           0.20592
  hessian_block                8      10          -0.475143          -0.313258           0.232506          -1.286965          -0.28207
  hessian_block                8      11          -0.686914          -0.408807          -1.364158          -0.648094           1.28625
  hessian_block                8      12          -2.397425           1.514278           1.710913           1.679061          -2.43262
  hessian_block                9       9           6.152446          -0.728641          -1.525802          -0.728641           9.24180
  hessian_block                9      10          -0.313861           0.741455           0.270828          -0.761329           0.56564
  hessian_block                9      11          -1.118005           3.724459           1.764303          -0.958605          -1.01444
  hessian_block                9      12          -0.552162          -1.791326          -0.075164           0.549020          -0.76598
  hessian_block               10      10           6.180298           1.225732           2.716349           1.225732           8.01109
  hessian_block               10      11           0.539481           0.855939           2.516075          -0.310299          -0.96317
  hessian_block               10      12          -0.707437          -0.112995          -2.186820          -0.453119          -0.82581
  hessian_block               11      11           8.896581          -1.552486           1.533704          -1.552486           9.10081
  hessian_block               11      12          -1.020892           2.070632           0.038576          -0.463237          -0.07912
  hessian_block               12      12           6.972234          -0.184059          -1.801660          -0.184059           6.41054
  hessian_block_lv             1       1          32.266578           4.706422           5.600405           4.706422          24.97619
  hessian_block_lv_atom        1       1           0.975930           0.472759           0.278828          -1.791843          -1.89927
  hessian_block_lv_atom        1       2          -0.567262          -0.430833          -0.113611          -0.042128          -0.58731
  hessian_block_lv_atom        1       3          -0.516646           0.152150          -0.289417          -0.009448           0.29334
  hessian_block_lv_atom        1       4           0.623092           0.584015           0.064902           1.678023           1.52282
  hessian_block_lv_atom        1       5           1.030138           0.836521           0.566238          -2.677663          -2.20509
  hessian_block_lv_atom        1       6          -0.528095          -0.556383          -0.633551           0.645722           1.01858
  hessian_block_lv_atom        1       7          -2.041248          -2.984646           0.392366          -1.251337          -0.25289
  hessian_block_lv_atom        1       8           0.754392           0.701188           0.054167           0.991015           0.20694
  hessian_block_lv_atom        1       9          -1.061519          -0.948548          -0.266488           2.989934           3.92122
  hessian_block_lv_atom        1      10           0.565594           1.512587           0.284982           1.425702           2.05204
  hessian_block_lv_atom        1      11           2.039464           2.965912          -0.639978          -0.743816          -2.50286
  hessian_block_lv_atom        1      12          -1.273832          -2.304718           0.301564          -1.214174          -1.56752
  symmetry_n_params 39 3 36
  symmetry_params a1 b2 c3 x0 x1 x2 x3 x4 x5 x6 x7 x8 x9 x10 x11 x12 x13 x14 x15 x16 x17 x18 x19 x20 x21 x22 x23 x24 x25 x26 x27 x28 x
  symmetry_lv a1 , 0 , 0
  symmetry_lv 0 , b2 , 0
  symmetry_lv 0 , 0 , c3
  symmetry_frac x0 , x1 , x2
  symmetry_frac x3 , x4 , x5
  symmetry_frac x6 , x7 , x8
  symmetry_frac x9 , x10 , x11
  symmetry_frac x12 , x13 , x14
  symmetry_frac x15 , x16 , x17
  symmetry_frac x18 , x19 , x20
  symmetry_frac x21 , x22 , x23
  symmetry_frac x24 , x25 , x26
  symmetry_frac x27 , x28 , x29
  symmetry_frac x30 , x31 , x32
  symmetry_frac x33 , x34 , x35
  
  -----------------------------------------------------------------------
  Completed first pass over input file geometry.in .
  -----------------------------------------------------------------------
  

  Basic array size parameters:
  | Number of species                 :        2
  | Number of atoms                   :       12
  | Number of lattice vectors         :        3
  | Max. basis fn. angular momentum   :        4
  | Max. atomic/ionic basis occupied n:        5
  | Max. number of basis fn. types    :        3
  | Max. radial fns per species/type  :       10
  | Max. logarithmic grid size        :     1444
  | Max. radial integration grid size :      125
  | Max. angular integration grid size:      434
  | Max. angular grid division number :        8
  | Radial grid for Hartree potential :     1444
  | Number of spin channels           :        1

------------------------------------------------------------
          Reading file control.in.
------------------------------------------------------------
  XC: Using PBE gradient-corrected functionals.
  Using libMBD for calculating MBD and TS energies
  Spin treatment: No spin polarisation.
  Found k-point grid:         5         5         4
  Scalar relativistic treatment of kinetic energy: on-site free-atom approximation to ZORA.
  Max energy increase before discarding BFGS move:   0.100000E-01 eV
  Assuming qualitatively harmonic for steps shorter than   0.150000E-01 A.
  S.C.F. convergence parameters will be adjusted in iteration number     3 of each new s.c.f. cycle.
  Geometry relaxation: Modified BFGS - TRM (trust radius method) for lattice optimization.
  Convergence accuracy for geometry relaxation: Maximum force <   0.100000E-01 eV/A.
 
  Reading configuration options for species Pd                  .
  | Found nuclear charge :  46.0000
  | Found atomic mass :    106.420000000000      amu
  | Found l_max for Hartree potential  :   6
  | Found cutoff potl. onset [A], width [A], scale factor :    4.00000    2.00000    1.00000
  | Threshold for basis-dependent cutoff potential is   0.100000E-03
  | Found data for basic radial integration grid :    62 points, outermost radius =    7.000 A
  | Found multiplier for basic radial grid :   2
  | Found angular grid specification: user-specified.
  | Specified grid contains     6 separate shells.
  | Check grid settings after all constraints further below.
  | Found free-atom valence shell :  5 s   1.000
  | Found free-atom valence shell :  4 p   6.000
  | Found free-atom valence shell :  4 d   9.000
  | Found free-ion valence shell :  5 s   0.000
  | Found free-ion valence shell :  4 p   6.000
  | Found free-ion valence shell :  4 d   8.000
  | Found ionic basis function :  5 p , default cutoff radius.
  | Found hydrogenic basis function :  4 f   8.000
  | Found hydrogenic basis function :  5 g  10.000
  | Found hydrogenic basis function :  3 s   2.600
  | Found hydrogenic basis function :  3 d   2.500
  Species Pd                  : Missing cutoff potential type.
  Defaulting to exp(1/x)/(1-x)^2 type cutoff potential.
  Species Pd: No 'logarithmic' tag. Using default grid for free atom:
  | Default logarithmic grid data [bohr] : 0.1000E-03 0.1000E+03 0.1012E+01
  | Will include ionic basis functions of  2.0-fold positive Pd                   ion.
  Species Pd: On-site basis accuracy parameter (for Gram-Schmidt orthonormalisation) not specified.
  Using default value basis_acc =  0.1000000E-03.
  Species Pd                  : Using default innermost maximum threshold i_radial=  2 for radial functions.
  Species Pd                  : Default cutoff onset for free atom density etc. : 0.40000000E+01 AA.
  Species Pd                  : Basic radial grid will be enhanced according to radial_multiplier =   2, to contain   125 grid points.
 
  Reading configuration options for species Se                  .
  | Found nuclear charge :  34.0000
  | Found atomic mass :    78.9600000000000      amu
  | Found l_max for Hartree potential  :   6
  | Found cutoff potl. onset [A], width [A], scale factor :    4.00000    2.00000    1.00000
  | Threshold for basis-dependent cutoff potential is   0.100000E-03
  | Found data for basic radial integration grid :    55 points, outermost radius =    7.000 A
  | Found multiplier for basic radial grid :   2
  | Found angular grid specification: user-specified.
  | Specified grid contains     5 separate shells.
  | Check grid settings after all constraints further below.
  | Found free-atom valence shell :  4 s   2.000
  | Found free-atom valence shell :  4 p   4.000
  | Found free-atom valence shell :  3 d  10.000
  | Found free-ion valence shell :  4 s   1.000
  | Found free-ion valence shell :  4 p   3.000
  | Found free-ion valence shell :  3 d  10.000
  | Found hydrogenic basis function :  3 d   4.300
  | Found hydrogenic basis function :  2 p   1.600
  | Found hydrogenic basis function :  4 f   7.200
  | Found ionic basis function :  4 s , default cutoff radius.
  Species Se                  : Missing cutoff potential type.
  Defaulting to exp(1/x)/(1-x)^2 type cutoff potential.
  Species Se: No 'logarithmic' tag. Using default grid for free atom:
  | Default logarithmic grid data [bohr] : 0.1000E-03 0.1000E+03 0.1012E+01
  | Will include ionic basis functions of  2.0-fold positive Se                   ion.
  Species Se: On-site basis accuracy parameter (for Gram-Schmidt orthonormalisation) not specified.
  Using default value basis_acc =  0.1000000E-03.
  Species Se                  : Using default innermost maximum threshold i_radial=  2 for radial functions.
  Species Se                  : Default cutoff onset for free atom density etc. : 0.40000000E+01 AA.
  Species Se                  : Basic radial grid will be enhanced according to radial_multiplier =   2, to contain   111 grid points.
 
  Finished reading input file 'control.in'. Consistency checks are next.
 
  MPI_IN_PLACE appears to work with this MPI implementation.
  | Keeping use_mpi_in_place .true. (see manual).
  Target number of points in a grid batch is not set. Defaulting to  100
  Method for grid partitioning is not set. Defaulting to parallel hash+maxmin partitioning.
  Batch size limit is not set. Defaulting to    200
  By default, will store active basis functions for each batch.
  If in need of memory, prune_basis_once .false. can be used to disable this option.
  communication_type for Hartree potential was not specified.
  Defaulting to calc_hartree .
  Defaulting to Pulay charge density mixer.
  Pulay mixer: Number of relevant iterations not set.
  Defaulting to    8 iterations.
  Pulay mixer: Number of initial linear mixing iterations not set.
  Defaulting to    0 iterations.
  Work space size for distributed Hartree potential not set.
  Defaulting to   0.200000E+03 MB.
  Mixing parameter for charge density mixing has not been set.
  Using default: charge_mix_param =     0.0500.
  The mixing parameter will be adjusted in iteration number     3 of each s.c.f. cycle (i.e., each geometry step).
  Algorithm-dependent basis array size parameters:
  | n_max_pulay                         :        8
  Maximum number of self-consistency iterations not provided.
  Presetting  1000 iterations.
  Presetting      1001 iterations before the initial mixing cycle
  is restarted anyway using the sc_init_iter criterion / keyword.
  Presetting a factor      1.000 between actual scf density residual
  and density convergence criterion sc_accuracy_rho below which sc_init_iter
  takes no effect.
 * No s.c.f. convergence criteria (sc_accuracy_*) were provided in control.in.
 * The run will proceed with a reasonable default guess, but please check whether.
 * the s.c.f. cycles seem to take too much or too little time.
  No maximum number of relaxation steps, defaulting to     1000
  Using explicit Hessian from geometry.in.
  Maximum energy tolerance by which TRM/BFGS trajectory may increase over multiple steps:   0.300000E-02
  No trust radius initializer. Defaulting to   0.200000E+00 A.
  Unit cell relaxation: Unit cell will be relaxed fully.
  Unit cell relaxation: Analytical stress will be used.
  Analytical stress will be computed.
  Analytical stress calculation: Only the upper triangle is calculated.
                                 Final output is symmetrized.
  Analytical stress calculation: scf convergence accuracy of stress not set.
                                 Analytical stress self-consistency will not be checked explicitly.
                                 Be sure to set other criteria like sc_accuracy_rho tight enough.
 * Notice: The s.c.f. convergence criterion sc_accuracy_rho was not provided.
 * We used to stop in this case, and ask the user to provide reasonable
 * scf convergence criteria. However, this led some users to employ criteria
 * that led to extremely long run times, e.g., for simple relaxation.
 * We now preset a default value for sc_accuracy_rho if it is not set.
 * You may still wish to check if this setting is too tight or too loose for your needs.
 * Based on n_atoms, FHI-aims chose sc_accuracy_rho =  0.141421E-05 .
  Force calculation: scf convergence accuracy of forces not set.
  Defaulting to 'sc_accuracy_forces not_checked'.
  Handling of forces: Unphysical translation and rotation will be removed from forces.
  No accuracy limit for integral partition fn. given. Defaulting to  0.1000E-14.
  No threshold value for u(r) in integrations given. Defaulting to  0.1000E-05.
  No occupation type (smearing scheme) given. Defaulting to Gaussian broadening, width =  0.1000E-01 eV.
  The width will be adjusted in iteration number     3 of each s.c.f. cycle (i.e., each geometry step).
  S.C.F. convergence parameters will be adjusted in iteration number     3 of the first full s.c.f. cycle only.
  No accuracy for occupation numbers given. Defaulting to  0.1000E-12.
  No threshold value for occupation numbers given. Defaulting to  0.0000E+00.
  No accuracy for fermi level given. Defaulting to  0.1000E-19.
  Maximum # of iterations to find E_F not set. Defaulting to  200.
  Preferred method for the eigenvalue solver ('KS_method') not specified in 'control.in'.
  Defaulting to serial version, LAPACK (via ELSI), since more k-points than CPUs available.
  Will not use alltoall communication since running on < 1024 CPUs.
  Threshold for basis singularities not set.
  Default threshold for basis singularities:  0.1000E-04
  partition_type (choice of integration weights) for integrals was not specified.
  | Using a version of the partition function of Stratmann and coworkers ('stratmann_sparse').
  | At each grid point, the set of atoms used to build the partition table is smoothly restricted to
  | only those atoms whose free-atom density would be non-zero at that grid point.
  Partitioning for Hartree potential was not defined. Using partition_type for integrals.
  | Adjusted default value of keyword multip_moments_threshold to:       0.10000000E-11
  | This value may affect high angular momentum components of the Hartree potential in periodic systems.
  Angular momentum expansion for Kerker preconditioner not set explicitly.
  | Using default value of   0
  No explicit requirement for turning off preconditioner.
  | By default, it will be turned off when the charge convergence reaches
  | sc_accuracy_rho  =   0.141421E-05
  No special mixing parameter while Kerker preconditioner is on.
  Using default: charge_mix_param =     0.0500.
  No q(lm)/r^(l+1) cutoff set for long-range Hartree potential.
  | Using default value of  0.100000E-09 .
  | Verify using the multipole_threshold keyword.
  Defaulting to new monopole extrapolation.
  Density update method: automatic selection selected.
  Using density matrix based charge density update.
  Using density matrix based charge density update.
  Using packed matrix style: index .
  Geometry relaxation: A file "geometry.in.next_step" is written out by default after each step.
  | This file contains the geometry of the current relaxation step as well as
  | the current Hessian matrix needed to restart the relaxation algorithm.
  | If you do not want part or all of this information, use the keywords
  | "write_restart_geometry" or "hessian_to_restart_geometry" to switch the output off.
  Defaulting to use time-reversal symmetry for k-point grid.
  Charge integration errors on the 3D integration grid will be compensated
  by explicit normalization and distribution of residual charges.
  Use the "compensate_multipole_errors" flag to change this behaviour.
------------------------------------------------------------


------------------------------------------------------------
          Reading geometry description geometry.in.
------------------------------------------------------------
  Input structure read successfully.
  The structure contains       12 atoms,  and a total of        456.000 electrons.

  Input geometry:
  | Unit cell:
  |        5.87988861        0.00000000        0.00000000
  |        0.00000000        5.97252454        0.00000000
  |        0.00000000        0.00000000        7.29505675
  | Atomic structure:
  |       Atom                x [A]            y [A]            z [A]
  |    1: Species Pd            2.96537424        0.02592601        0.03149604
  |    2: Species Pd            0.02545280        0.02599798        3.67907373
  |    3: Species Pd            0.02545751        3.01194114        0.03114654
  |    4: Species Pd            2.96538311        3.01204225        3.67942769
  |    5: Species Se            3.62359984        0.72599452        2.95323703
  |    6: Species Se            5.24655152        5.29780032        6.60038103
  |    7: Species Se            0.68363607        2.31173879        4.40523477
  |    8: Species Se            2.30717774        3.71220734        0.75752737
  |    9: Species Se            2.30716874        5.29769341        4.40499279
  |   10: Species Se            0.68354087        0.72588439        0.75718451
  |   11: Species Se            5.24660068        3.71244248        2.95304357
  |   12: Species Se            3.62373025        2.31197739        6.59999096

  Lattice parameters for 3D lattice (in Angstroms) :     5.879889    5.972525    7.295057
  Angle(s) between unit vectors (in degrees)       :    90.000000   90.000000   90.000000

  | The smallest distance between any two atoms is         2.40892053 AA.
  | The first atom of this pair is atom number                      5 .
  | The second atom of this pair is atom number                     9 .
  | Wigner-Seitz cell of the first atom image           1     0    -1 .
  | (The Wigner-Seitz cell of the second atom is 0 0 0  by definition.)

  Symmetry information by spglib:
  | Precision set to  0.1E-04
  | Number of Operations  : 1
  | Space group           : 1
  | International         : P1  -    HN
  | Schoenflies           : C1^1

  Quantities derived from the lattice vectors:
  | Reciprocal lattice vector 1:  1.068589  0.000000  0.000000
  | Reciprocal lattice vector 2:  0.000000  1.052015  0.000000
  | Reciprocal lattice vector 3:  0.000000  0.000000  0.861294
  | Unit cell volume                               :   0.256186E+03  A^3

  Range separation radius for Ewald summation (hartree_convergence_parameter):      3.98131675 bohr.

  Fractional coordinates:
                         L1                L2                L3
       atom_frac         0.50432490        0.00434088        0.00431745  Pd
       atom_frac         0.00432879        0.00435293        0.50432421  Pd
       atom_frac         0.00432959        0.50429950        0.00426954  Pd
       atom_frac         0.50432641        0.50431643        0.50437273  Pd
       atom_frac         0.61627015        0.12155572        0.40482715  Se
       atom_frac         0.89228757        0.88702864        0.90477446  Se
       atom_frac         0.11626684        0.38706225        0.60386573  Se
       atom_frac         0.39238460        0.62154744        0.10384119  Se
       atom_frac         0.39238307        0.88701074        0.60383256  Se
       atom_frac         0.11625065        0.12153728        0.10379419  Se
       atom_frac         0.89229593        0.62158681        0.40480063  Se
       atom_frac         0.61629233        0.38710220        0.90472099  Se

  Number of empty states per atom not set in control.in - providing a guess from actual geometry.
  | Total number of empty states used during s.c.f. cycle:       66
  If you use a very high smearing, use empty_states (per atom!) in control.in to increase this value.

  Structure-dependent array size parameters: 
  | Maximum number of distinct radial functions  :       27
  | Maximum number of basis functions            :      468
  | Number of Kohn-Sham states (occupied + empty):      294
------------------------------------------------------------

------------------------------------------------------------
          Preparing all fixed parts of the calculation.
------------------------------------------------------------
  Determining machine precision:
    2.225073858507201E-308
  Setting up grids for atomic and cluster calculations.

  Creating wave function, potential, and density for free atoms.

  Species: Pd

  List of occupied orbitals and eigenvalues:
    n    l              occ      energy [Ha]    energy [eV]
    1    0           2.0000      -913.269104    -24851.3168
    2    0           2.0000      -130.434372     -3549.2998
    3    0           2.0000       -23.521804      -640.0609
    4    0           2.0000        -3.256918       -88.6253
    5    0           1.0000        -0.157260        -4.2793
    2    1           6.0000      -116.910756     -3181.3035
    3    1           6.0000       -19.103344      -519.8284
    4    1           6.0000        -1.998052       -54.3697
    3    2          10.0000       -12.098182      -329.2083
    4    2           9.0000        -0.243389        -6.6230


  Species: Se

  List of occupied orbitals and eigenvalues:
    n    l              occ      energy [Ha]    energy [eV]
    1    0           2.0000      -466.337810    -12689.6975
    2    0           2.0000       -59.202598     -1610.9847
    3    0           2.0000        -7.847116      -213.5309
    4    0           2.0000        -0.634372       -17.2621
    2    1           6.0000       -52.061107     -1416.6548
    3    1           6.0000        -5.620941      -152.9536
    4    1           4.0000        -0.238469        -6.4891
    3    2          10.0000        -1.951949       -53.1152

  Creating fixed part of basis set: Ionic, confined, hydrogenic.
 
  Pd                   ion:

  List of free ionic orbitals and eigenvalues:
    n    l      energy [Ha]    energy [eV]
    1    0      -914.099884    -24873.9234
    2    0      -131.248265     -3571.4470
    3    0       -24.332473      -662.1203
    4    0        -4.059276      -110.4585
    2    1      -117.724296     -3203.4411
    3    1       -19.913908      -541.8850
    4    1        -2.795328       -76.0648
    3    2       -12.908733      -351.2645
    4    2        -1.004248       -27.3270


  List of ionic basis orbitals and eigenvalues:
    n    l      energy [Ha]    energy [eV]    outer radius [A]
    5    1        -0.516938       -14.0666       5.427025

 
  Pd                   hydrogenic:
 
  List of hydrogenic basis orbitals: 
    n    l      effective z      eigenvalue [eV]  inner max. [A]     outer max. [A]     outer radius [A]   
    4    3         8.000000       -54.4226           1.054686           1.054686           4.629581
    5    4        10.000000       -54.4226           1.330451           1.330451           5.043202
    3    0         2.600000        -9.8948           0.150992           2.606197           5.493778
    3    2         2.500000        -9.3396           1.873517           1.873517           5.493778
 
 
  Se                   ion:

  List of free ionic orbitals and eigenvalues:
    n    l      energy [Ha]    energy [eV]
    1    0      -467.261007    -12714.8189
    2    0       -60.104893     -1635.5374
    3    0        -8.743714      -237.9286
    4    0        -1.414053       -38.4783
    2    1       -52.964156     -1441.2280
    3    1        -6.516916      -177.3343
    4    1        -0.961869       -26.1738
    3    2        -2.844511       -77.4031


  List of ionic basis orbitals and eigenvalues:
    n    l      energy [Ha]    energy [eV]    outer radius [A]
    4    0        -1.414046       -38.4782       4.083166

 
  Se                   hydrogenic:
 
  List of hydrogenic basis orbitals: 
    n    l      effective z      eigenvalue [eV]  inner max. [A]     outer max. [A]     outer radius [A]   
    3    2         4.300000       -27.9518           1.103845           1.103845           5.278265
    2    1         1.600000        -8.6828           1.326010           1.326010           5.475439
    4    3         7.200000       -44.0822           1.173422           1.173422           4.965294
 

  Adding cutoff potential to free-atom effective potential.
  Creating atomic-like basis functions for current effective potential.

  Species Pd                  :

  List of atomic basis orbitals and eigenvalues:
    n    l      energy [Ha]    energy [eV]    outer radius [A]
    1    0      -913.269104    -24851.3168       0.223280
    2    0      -130.434372     -3549.2998       0.615909
    3    0       -23.521804      -640.0609       1.414312
    4    0        -3.256918       -88.6253       3.581357
    5    0        -0.157260        -4.2793       5.427025
    2    1      -116.910756     -3181.3035       0.631154
    3    1       -19.103344      -519.8284       1.540671
    4    1        -1.998052       -54.3697       4.408641
    3    2       -12.098182      -329.2083       1.806051
    4    2        -0.243389        -6.6230       5.361084


  Species Se                  :

  List of atomic basis orbitals and eigenvalues:
    n    l      energy [Ha]    energy [eV]    outer radius [A]
    1    0      -466.337810    -12689.6975       0.309561
    2    0       -59.202598     -1610.9847       0.885812
    3    0        -7.847116      -213.5309       2.355489
    4    0        -0.634372       -17.2621       5.214131
    2    1       -52.061107     -1416.6548       0.907737
    3    1        -5.620941      -152.9536       2.694529
    4    1        -0.238469        -6.4891       5.408909
    3    2        -1.951949       -53.1152       4.083166

  Assembling full basis from fixed parts.
  | Species Pd :   atomic orbital   1 s accepted.
  | Species Pd :   atomic orbital   2 s accepted.
  | Species Pd :   atomic orbital   3 s accepted.
  | Species Pd :   atomic orbital   4 s accepted.
  | Species Pd :   atomic orbital   5 s accepted.
  | Species Pd :    hydro orbital   3 s accepted.
  | Species Pd :   atomic orbital   2 p accepted.
  | Species Pd :   atomic orbital   3 p accepted.
  | Species Pd :   atomic orbital   4 p accepted.
  | Species Pd :    ionic orbital   5 p accepted.
  | Species Pd :   atomic orbital   3 d accepted.
  | Species Pd :   atomic orbital   4 d accepted.
  | Species Pd :    hydro orbital   3 d accepted.
  | Species Pd :    hydro orbital   4 f accepted.
  | Species Pd :    hydro orbital   5 g accepted.
  | Species Se :   atomic orbital   1 s accepted.
  | Species Se :   atomic orbital   2 s accepted.
  | Species Se :   atomic orbital   3 s accepted.
  | Species Se :    ionic orbital   4 s accepted.
  | Species Se :   atomic orbital   4 s accepted.
  | Species Se :   atomic orbital   2 p accepted.
  | Species Se :   atomic orbital   3 p accepted.
  | Species Se :   atomic orbital   4 p accepted.
  | Species Se :    hydro orbital   2 p accepted.
  | Species Se :   atomic orbital   3 d accepted.
  | Species Se :    hydro orbital   3 d accepted.
  | Species Se :    hydro orbital   4 f accepted.
 
  Basis size parameters after reduction:
  | Total number of radial functions:       27
  | Total number of basis functions :      468
 
  Per-task memory consumption for arrays in subroutine allocate_ext:
  |           9.993344MB.
  Testing on-site integration grid accuracy.
  |  Species  Function  <phi|h_atom|phi> (log., in eV)  <phi|h_atom|phi> (rad., in eV)
           1        1             -24851.3167505682             -24851.3148165635
           1        2              -3549.2998457785              -3549.2998098031
           1        3               -640.0608571327               -640.0608534886
           1        4                -88.6252603131                -88.6252593316
           1        5                 -4.2849374515                 -4.2849400622
           1        6                  4.9432123540                  4.9432188418
           1        7              -3181.3035399559              -3181.3035364574
           1        8               -519.8284281886               -519.8284264063
           1        9                -54.3697495804                -54.3697489261
           1       10                  0.8628369484                  0.8628370487
           1       11               -329.2082917394               -329.2082912864
           1       12                 -6.6230267036                 -6.6230265076
           1       13                  5.4924295291                  5.4924115607
           1       14                 25.0740861942                 25.0740861175
           1       15                 38.8271273823                 38.8271278029
           2       16             -12689.6974611609             -12689.6967666984
           2       17              -1610.9846578580              -1610.9846472470
           2       18               -213.5308789869               -213.5308777267
           2       19                -17.0464428502                -17.0464426496
           2       20                  6.7356859379                  6.7356842047
           2       21              -1416.6548010133              -1416.6548002108
           2       22               -152.9535734377               -152.9535727493
           2       23                 -6.4896265677                 -6.4896303794
           2       24                  5.2703037283                  5.2701679583
           2       25                -53.1152220964                -53.1152219035
           2       26                  7.6186674138                  7.6186665630
           2       27                 23.1072799052                 23.1072803137

  Preparing densities etc. for the partition functions (integrals / Hartree potential).

  Preparations completed.
  max(cpu_time)          :      0.551 s.
  Wall clock time (cpu1) :      0.637 s.
------------------------------------------------------------

------------------------------------------------------------
          Begin self-consistency loop: Initialization.

          Date     :  20200420, Time     :  204040.407
------------------------------------------------------------

  Initializing index lists of integration centers etc. from given atomic structure:
  Mapping all atomic coordinates to central unit cell.

  Initializing the k-points
  Using symmetry for reducing the k-points
  | k-points reduced from:      100 to       51
  | Number of k-points                             :        51
  The eigenvectors in the calculations are COMPLEX.
  | K-points in task   0:         2
  | K-points in task   1:         3
  | K-points in task   2:         3
  | K-points in task   3:         3
  | K-points in task   4:         2
  | K-points in task   5:         2
  | K-points in task   6:         2
  | K-points in task   7:         2
  | K-points in task   8:         2
  | K-points in task   9:         2
  | K-points in task  10:         2
  | K-points in task  11:         2
  | K-points in task  12:         2
  | K-points in task  13:         2
  | K-points in task  14:         2
  | K-points in task  15:         2
  | K-points in task  16:         2
  | K-points in task  17:         2
  | K-points in task  18:         2
  | K-points in task  19:         2
  | K-points in task  20:         2
  | K-points in task  21:         2
  | K-points in task  22:         2
  | K-points in task  23:         2
  | Number of basis functions in the Hamiltonian integrals :      5597
  | Number of basis functions in a single unit cell        :       468
  | Number of centers in hartree potential         :      1322
  | Number of centers in hartree multipole         :       786
  | Number of centers in electron density summation:       602
  | Number of centers in basis integrals           :       646
  | Number of centers in integrals                 :       237
  | Number of centers in hamiltonian               :       602
  | Consuming         68 KiB for k_phase.
  | Number of super-cells (origin) [n_cells]                     :         567
  | Number of super-cells (after PM_index) [n_cells]             :          86
  | Number of super-cells in hamiltonian [n_cells_in_hamiltonian]:          86
  | Size of matrix packed + index [n_hamiltonian_matrix_size] :     1313537

  Initializing relaxation algorithms.
  | Estimated reciprocal-space cutoff momentum G_max:         2.44061871 bohr^-1 .
  | Reciprocal lattice points for long-range Hartree potential:     430
  Partitioning the integration grid into batches with parallel hashing+maxmin method.
  | Number of batches:     4189
  | Maximal batch size:     111
  | Minimal batch size:      50
  | Average batch size:      91.701
  | Standard deviation of batch sizes:      11.377

  Integration load balanced across    24 MPI tasks.
  Work distribution over tasks is as follows:
  Task     0 has      15970 integration points.
  Task     1 has      15968 integration points.
  Task     2 has      15994 integration points.
  Task     3 has      16017 integration points.
  Task     4 has      15969 integration points.
  Task     5 has      16016 integration points.
  Task     6 has      16014 integration points.
  Task     7 has      16013 integration points.
  Task     8 has      16021 integration points.
  Task     9 has      16044 integration points.
  Task    10 has      15994 integration points.
  Task    11 has      15986 integration points.
  Task    12 has      16013 integration points.
  Task    13 has      15999 integration points.
  Task    14 has      16001 integration points.
  Task    15 has      15994 integration points.
  Task    16 has      16041 integration points.
  Task    17 has      16019 integration points.
  Task    18 has      16016 integration points.
  Task    19 has      15999 integration points.
  Task    20 has      16013 integration points.
  Task    21 has      16040 integration points.
  Task    22 has      16010 integration points.
  Task    23 has      15985 integration points.
  Initializing partition tables, free-atom densities, potentials, etc. across the integration grid (initialize_grid_storage).
  | initialize_grid_storage: Actual outermost partition radius vs. multipole_radius_free
  | (-- VB: in principle, multipole_radius_free should be larger, hence this output)
  | Species        1: Confinement radius =              6.000000000000000 AA, multipole_radius_free =              6.058219618167466 AA.
  | Species        1: outer_partition_radius set to              6.058219618167466 AA .
  | Species        2: Confinement radius =              6.000000000000000 AA, multipole_radius_free =              6.037996416842453 AA.
  | Species        2: outer_partition_radius set to              6.037996416842453 AA .
  | The sparse table of interatomic distances needs       2972.35 kbyte instead of      3338.53 kbyte of memory.
  | Net number of integration points:   384136
  | of which are non-zero points    :   321662
  | Numerical average free-atom electrostatic potential    :    -17.28601670 eV
  Renormalizing the initial density to the exact electron count on the 3D integration grid.
  | Initial density: Formal number of electrons (from input files) :     456.0000000000
  | Integrated number of electrons on 3D grid     :     456.0000866863
  | Charge integration error                      :       0.0000866863
  | Normalization factor for density and gradient :       0.9999998099
  Renormalizing the free-atom superposition density to the exact electron count on the 3D integration grid.
  | Formal number of electrons (from input files) :     456.0000000000
  | Integrated number of electrons on 3D grid     :     456.0000866863
  | Charge integration error                      :       0.0000866863
  | Normalization factor for density and gradient :       0.9999998099
  Obtaining max. number of non-zero basis functions in each batch (get_n_compute_maxes).
  | Maximal number of non-zero basis functions:     1038 in task     0
  | Maximal number of non-zero basis functions:     1026 in task     1
  | Maximal number of non-zero basis functions:     1020 in task     2
  | Maximal number of non-zero basis functions:     1028 in task     3
  | Maximal number of non-zero basis functions:     1027 in task     4
  | Maximal number of non-zero basis functions:     1044 in task     5
  | Maximal number of non-zero basis functions:     1039 in task     6
  | Maximal number of non-zero basis functions:     1020 in task     7
  | Maximal number of non-zero basis functions:     1028 in task     8
  | Maximal number of non-zero basis functions:     1032 in task     9
  | Maximal number of non-zero basis functions:     1043 in task    10
  | Maximal number of non-zero basis functions:     1036 in task    11
  | Maximal number of non-zero basis functions:     1037 in task    12
  | Maximal number of non-zero basis functions:     1022 in task    13
  | Maximal number of non-zero basis functions:     1058 in task    14
  | Maximal number of non-zero basis functions:     1020 in task    15
  | Maximal number of non-zero basis functions:     1056 in task    16
  | Maximal number of non-zero basis functions:     1061 in task    17
  | Maximal number of non-zero basis functions:     1040 in task    18
  | Maximal number of non-zero basis functions:     1029 in task    19
  | Maximal number of non-zero basis functions:     1047 in task    20
  | Maximal number of non-zero basis functions:     1030 in task    21
  | Maximal number of non-zero basis functions:     1035 in task    22
  | Maximal number of non-zero basis functions:     1028 in task    23
  Allocating        4.199 MB for KS_eigenvector_complex
  Integrating Hamiltonian matrix: batch-based integration.
  Time summed over all CPUs for integration: real work       64.877 s, elapsed       65.475 s
  Integrating overlap matrix.
  Time summed over all CPUs for integration: real work       47.039 s, elapsed       47.586 s
  Decreasing sparse matrix size:
  | Tolerance:  0.1000E-12
  Hamiltonian matrix
  | Array has  1131449 nonzero elements out of  1313537 elements
  | Sparsity factor is 0.139
  Overlap matrix
  | Array has  1042712 nonzero elements out of  1313537 elements
  | Sparsity factor is 0.206
  New size of hamiltonian matrix:     1131522

  Updating Kohn-Sham eigenvalues and eigenvectors using ELSI and the (modified) LAPACK eigensolver.
  Singularity check in k-point 24, task 0 (analysis for other k-points/tasks may follow below):
  Overlap matrix is not singular
  | Lowest and highest eigenvalues :  0.6112E-03,  0.7356E+01
  Finished singularity check of overlap matrix
  | Time :     0.076 s
  Starting LAPACK eigensolver
  Finished Cholesky decomposition
  | Time :     0.018 s
  Finished transformation to standard eigenproblem
  | Time :     0.021 s
  Finished solving standard eigenproblem
  | Time :     0.071 s
  Finished back-transformation of eigenvectors
  | Time :     0.008 s

  Obtaining occupation numbers and chemical potential using ELSI.
  | Chemical potential (Fermi level):    -4.54574960 eV
  Writing Kohn-Sham eigenvalues.
  K-point:       1 at    0.000000    0.000000    0.000000 (in units of recip. lattice)

  State    Occupation    Eigenvalue [Ha]    Eigenvalue [eV]
      1       2.00000        -913.279363       -24851.59590
      2       2.00000        -913.279357       -24851.59573
      3       2.00000        -913.279356       -24851.59571
      4       2.00000        -913.279356       -24851.59570
      5       2.00000        -466.350199       -12690.03457
      6       2.00000        -466.350198       -12690.03454
      7       2.00000        -466.350195       -12690.03446
      8       2.00000        -466.350194       -12690.03444
      9       2.00000        -466.350193       -12690.03442
     10       2.00000        -466.350193       -12690.03441
     11       2.00000        -466.350190       -12690.03433
     12       2.00000        -466.350188       -12690.03427
     13       2.00000        -130.444946        -3549.58759
     14       2.00000        -130.444940        -3549.58742
     15       2.00000        -130.444939        -3549.58740
     16       2.00000        -130.444939        -3549.58739
     17       2.00000        -116.921353        -3181.59190
     18       2.00000        -116.921347        -3181.59173
     19       2.00000        -116.921346        -3181.59171
     20       2.00000        -116.921346        -3181.59170
     21       2.00000        -116.921345        -3181.59167
     22       2.00000        -116.921339        -3181.59150
     23       2.00000        -116.921338        -3181.59148
     24       2.00000        -116.921337        -3181.59147
     25       2.00000        -116.921294        -3181.59029
     26       2.00000        -116.921288        -3181.59012
     27       2.00000        -116.921287        -3181.59010
     28       2.00000        -116.921287        -3181.59009
     29       2.00000         -59.215412        -1611.33334
     30       2.00000         -59.215410        -1611.33330
     31       2.00000         -59.215408        -1611.33323
     32       2.00000         -59.215407        -1611.33320
     33       2.00000         -59.215406        -1611.33318
     34       2.00000         -59.215406        -1611.33317
     35       2.00000         -59.215403        -1611.33309
     36       2.00000         -59.215400        -1611.33303
     37       2.00000         -52.073926        -1417.00362
     38       2.00000         -52.073925        -1417.00358
     39       2.00000         -52.073922        -1417.00350
     40       2.00000         -52.073921        -1417.00348
     41       2.00000         -52.073920        -1417.00346
     42       2.00000         -52.073920        -1417.00345
     43       2.00000         -52.073917        -1417.00337
     44       2.00000         -52.073914        -1417.00330
     45       2.00000         -52.073903        -1417.00300
     46       2.00000         -52.073902        -1417.00297
     47       2.00000         -52.073899        -1417.00290
     48       2.00000         -52.073898        -1417.00287
     49       2.00000         -52.073898        -1417.00285
     50       2.00000         -52.073897        -1417.00284
     51       2.00000         -52.073894        -1417.00276
     52       2.00000         -52.073892        -1417.00270
     53       2.00000         -52.073857        -1417.00175
     54       2.00000         -52.073856        -1417.00172
     55       2.00000         -52.073853        -1417.00164
     56       2.00000         -52.073853        -1417.00162
     57       2.00000         -52.073852        -1417.00160
     58       2.00000         -52.073851        -1417.00159
     59       2.00000         -52.073848        -1417.00151
     60       2.00000         -52.073846        -1417.00145
     61       2.00000         -23.533132         -640.36911
     62       2.00000         -23.533125         -640.36893
     63       2.00000         -23.533125         -640.36890
     64       2.00000         -23.533124         -640.36889
     65       2.00000         -19.114914         -520.14328
     66       2.00000         -19.114907         -520.14309
     67       2.00000         -19.114906         -520.14307
     68       2.00000         -19.114906         -520.14306
     69       2.00000         -19.114829         -520.14096
     70       2.00000         -19.114822         -520.14077
     71       2.00000         -19.114821         -520.14075
     72       2.00000         -19.114821         -520.14075
     73       2.00000         -19.114328         -520.12732
     74       2.00000         -19.114321         -520.12715
     75       2.00000         -19.114320         -520.12712
     76       2.00000         -19.114320         -520.12712
     77       2.00000         -12.109719         -329.52221
     78       2.00000         -12.109712         -329.52203
     79       2.00000         -12.109711         -329.52201
     80       2.00000         -12.109711         -329.52200
     81       2.00000         -12.109685         -329.52128
     82       2.00000         -12.109678         -329.52110
     83       2.00000         -12.109677         -329.52107
     84       2.00000         -12.109677         -329.52107
     85       2.00000         -12.109361         -329.51249
     86       2.00000         -12.109355         -329.51231
     87       2.00000         -12.109354         -329.51229
     88       2.00000         -12.109354         -329.51228
     89       2.00000         -12.109307         -329.51100
     90       2.00000         -12.109300         -329.51082
     91       2.00000         -12.109299         -329.51080
     92       2.00000         -12.109299         -329.51080
     93       2.00000         -12.109231         -329.50893
     94       2.00000         -12.109224         -329.50875
     95       2.00000         -12.109223         -329.50873
     96       2.00000         -12.109223         -329.50872
     97       2.00000          -7.861712         -213.92806
     98       2.00000          -7.861710         -213.92802
     99       2.00000          -7.861706         -213.92790
    100       2.00000          -7.861705         -213.92788
    101       2.00000          -7.861704         -213.92786
    102       2.00000          -7.861702         -213.92780
    103       2.00000          -7.861698         -213.92770
    104       2.00000          -7.861696         -213.92764
    105       2.00000          -5.636089         -153.36580
    106       2.00000          -5.636088         -153.36575
    107       2.00000          -5.636084         -153.36564
    108       2.00000          -5.636084         -153.36564
    109       2.00000          -5.636082         -153.36559
    110       2.00000          -5.636082         -153.36558
    111       2.00000          -5.636079         -153.36550
    112       2.00000          -5.636075         -153.36541
    113       2.00000          -5.635881         -153.36013
    114       2.00000          -5.635879         -153.36008
    115       2.00000          -5.635875         -153.35995
    116       2.00000          -5.635874         -153.35993
    117       2.00000          -5.635811         -153.35821
    118       2.00000          -5.635808         -153.35815
    119       2.00000          -5.635804         -153.35803
    120       2.00000          -5.635803         -153.35800
    121       2.00000          -5.635232         -153.34247
    122       2.00000          -5.635231         -153.34244
    123       2.00000          -5.635228         -153.34234
    124       2.00000          -5.635227         -153.34234
    125       2.00000          -5.635227         -153.34233
    126       2.00000          -5.635225         -153.34228
    127       2.00000          -5.635222         -153.34219
    128       2.00000          -5.635220         -153.34213
    129       2.00000          -3.273726          -89.08260
    130       2.00000          -3.273716          -89.08235
    131       2.00000          -3.273714          -89.08230
    132       2.00000          -3.273714          -89.08228
    133       2.00000          -2.019846          -54.96281
    134       2.00000          -2.019838          -54.96260
    135       2.00000          -2.019814          -54.96194
    136       2.00000          -2.019809          -54.96179
    137       2.00000          -2.018870          -54.93626
    138       2.00000          -2.018862          -54.93604
    139       2.00000          -2.018828          -54.93510
    140       2.00000          -2.018823          -54.93496
    141       2.00000          -2.013044          -54.77770
    142       2.00000          -2.013035          -54.77748
    143       2.00000          -2.013032          -54.77739
    144       2.00000          -2.013031          -54.77736
    145       2.00000          -1.969125          -53.58261
    146       2.00000          -1.969118          -53.58244
    147       2.00000          -1.969098          -53.58187
    148       2.00000          -1.969092          -53.58172
    149       2.00000          -1.968075          -53.55404
    150       2.00000          -1.968067          -53.55382
    151       2.00000          -1.968051          -53.55339
    152       2.00000          -1.968047          -53.55330
    153       2.00000          -1.967648          -53.54242
    154       2.00000          -1.967640          -53.54222
    155       2.00000          -1.967633          -53.54201
    156       2.00000          -1.967625          -53.54179
    157       2.00000          -1.967517          -53.53885
    158       2.00000          -1.967514          -53.53877
    159       2.00000          -1.967507          -53.53860
    160       2.00000          -1.967501          -53.53843
    161       2.00000          -1.967252          -53.53166
    162       2.00000          -1.967246          -53.53148
    163       2.00000          -1.967226          -53.53095
    164       2.00000          -1.967217          -53.53069
    165       2.00000          -1.967216          -53.53068
    166       2.00000          -1.967205          -53.53038
    167       2.00000          -1.967188          -53.52990
    168       2.00000          -1.967186          -53.52985
    169       2.00000          -1.967139          -53.52856
    170       2.00000          -1.967136          -53.52850
    171       2.00000          -1.967130          -53.52834
    172       2.00000          -1.967125          -53.52818
    173       2.00000          -1.967124          -53.52817
    174       2.00000          -1.967122          -53.52811
    175       2.00000          -1.967118          -53.52801
    176       2.00000          -1.967107          -53.52772
    177       2.00000          -1.966611          -53.51422
    178       2.00000          -1.966609          -53.51416
    179       2.00000          -1.966602          -53.51395
    180       2.00000          -1.966596          -53.51380
    181       2.00000          -1.966262          -53.50470
    182       2.00000          -1.966252          -53.50443
    183       2.00000          -1.966250          -53.50438
    184       2.00000          -1.966244          -53.50422
    185       2.00000          -0.759924          -20.67857
    186       2.00000          -0.738912          -20.10681
    187       2.00000          -0.720433          -19.60399
    188       2.00000          -0.718807          -19.55974
    189       2.00000          -0.652862          -17.76527
    190       2.00000          -0.641022          -17.44309
    191       2.00000          -0.640100          -17.41801
    192       2.00000          -0.627087          -17.06391
    193       2.00000          -0.417775          -11.36824
    194       2.00000          -0.410160          -11.16101
    195       2.00000          -0.391150          -10.64375
    196       2.00000          -0.375866          -10.22783
    197       2.00000          -0.371571          -10.11096
    198       2.00000          -0.370248          -10.07495
    199       2.00000          -0.365379           -9.94246
    200       2.00000          -0.365091           -9.93464
    201       2.00000          -0.363161           -9.88212
    202       2.00000          -0.362455           -9.86291
    203       2.00000          -0.361497           -9.83684
    204       2.00000          -0.351535           -9.56574
    205       2.00000          -0.344063           -9.36242
    206       2.00000          -0.332034           -9.03511
    207       2.00000          -0.327213           -8.90391
    208       2.00000          -0.319731           -8.70033
    209       2.00000          -0.318115           -8.65634
    210       2.00000          -0.304658           -8.29017
    211       2.00000          -0.288586           -7.85282
    212       2.00000          -0.286718           -7.80199
    213       2.00000          -0.285073           -7.75723
    214       2.00000          -0.279658           -7.60989
    215       2.00000          -0.279633           -7.60920
    216       2.00000          -0.277057           -7.53911
    217       2.00000          -0.275707           -7.50236
    218       2.00000          -0.275510           -7.49701
    219       2.00000          -0.273799           -7.45046
    220       2.00000          -0.270104           -7.34990
    221       2.00000          -0.266178           -7.24307
    222       2.00000          -0.265292           -7.21898
    223       2.00000          -0.264488           -7.19708
    224       2.00000          -0.259266           -7.05500
    225       2.00000          -0.222412           -6.05213
    226       2.00000          -0.213640           -5.81343
    227       2.00000          -0.211620           -5.75849
    228       0.00000          -0.158689           -4.31815
    229       0.00000          -0.154413           -4.20180
    230       0.00000          -0.134362           -3.65617
    231       0.00000          -0.129069           -3.51215
    232       0.00000          -0.126785           -3.45001
    233       0.00000          -0.125011           -3.40173
    234       0.00000          -0.115661           -3.14728
    235       0.00000          -0.114515           -3.11612
    236       0.00000          -0.082859           -2.25470
    237       0.00000          -0.036663           -0.99765
    238       0.00000          -0.027455           -0.74709
    239       0.00000           0.003724            0.10135
    240       0.00000           0.028680            0.78043
    241       0.00000           0.029225            0.79526
    242       0.00000           0.031624            0.86054
    243       0.00000           0.061660            1.67785
    244       0.00000           0.089961            2.44798
    245       0.00000           0.097862            2.66297
    246       0.00000           0.112357            3.05740
    247       0.00000           0.117027            3.18446
    248       0.00000           0.122904            3.34438
    249       0.00000           0.124843            3.39716
    250       0.00000           0.124914            3.39908
    251       0.00000           0.139786            3.80377
    252       0.00000           0.153826            4.18581
    253       0.00000           0.156841            4.26785
    254       0.00000           0.167423            4.55581
    255       0.00000           0.177159            4.82073
    256       0.00000           0.189980            5.16962
    257       0.00000           0.194412            5.29021
    258       0.00000           0.203643            5.54142
    259       0.00000           0.222653            6.05870
    260       0.00000           0.230191            6.26382
    261       0.00000           0.247081            6.72342
    262       0.00000           0.257914            7.01821
    263       0.00000           0.268625            7.30967
    264       0.00000           0.278349            7.57427
    265       0.00000           0.282088            7.67600
[...]
  |                x                y                z                |
  |                                                                   |
  |  x         0.00011918      -0.00001310      -0.00003486           |
  |  y        -0.00001310       0.00022069       0.00000692           |
  |  z        -0.00003486       0.00000692       0.00001336           |
  |                                                                   |
  |  Pressure:      -0.00011774   [eV/A**3]                           |
  |                                                                   |
  +-------------------------------------------------------------------+

 * Warning: Stress tensor is anisotropic. Be aware that pressure is an isotropic quantity.


  Leaving Libmbd.

  Timings for VdW correction (Tkatchenko-Scheffler 2009 or later):
  | CPU time:        3.491 s, Wall clock time:        3.493 s.
  Removing unitary transformations (pure translations, rotations) from forces on atoms.
  Atomic forces before filtering:
  | Net force on center of mass :  -0.124002E-03 -0.397049E-04 -0.144519E-03 eV/A
  Atomic forces after filtering:
  | Net force on center of mass :   0.209070E-17  0.348449E-17  0.139380E-17 eV/A

  Energy and forces in a compact form:
  | Total energy uncorrected      :         -0.108791112409697E+07 eV
  | Total energy corrected        :         -0.108791112567101E+07 eV  <-- do not rely on this value for anything but (periodic) metals
  | Electronic free energy        :         -0.108791112724505E+07 eV
  Total atomic forces (unitary forces cleaned) [eV/Ang]:
  |    1         -0.397802881321906E-02          0.414000631827750E-02          0.395621367536717E-02
  |    2          0.339615008543029E-02          0.288941875563657E-02          0.393311997452535E-03
  |    3          0.671758158780815E-02         -0.113140613967721E-02          0.434562608274093E-02
  |    4         -0.899260118903058E-03         -0.225396429458430E-02          0.202354557914528E-04
  |    5         -0.773286611143325E-02          0.358644433560029E-02         -0.624342180666269E-03
  |    6          0.213952404790501E-02         -0.290164647960352E-02         -0.855270653851477E-02
  |    7          0.953515271914386E-04          0.396102936946264E-02         -0.211920648851855E-02
  |    8         -0.328875925191005E-03         -0.575400470138402E-02          0.392200134662478E-02
  |    9          0.425485504669386E-02         -0.280886098001900E-02         -0.574689775903632E-03
  |   10          0.965957177107222E-03          0.220414773014694E-02          0.549490266476037E-02
  |   11          0.924207822306939E-03         -0.516426658484749E-02          0.537551929473220E-03
  |   12         -0.555459632569653E-02          0.323310267099161E-02         -0.679889816860724E-02

  ------------------------------------ 
  Start decomposition of the XC Energy 
  ------------------------------------ 
  X and C from original XC functional choice 
  Hartree-Fock Energy :          0.000000000 Ha              0.000000000 eV
  X Energy            :      -1261.087248180 Ha         -34315.929998272 eV
  C Energy            :        -23.242616255 Ha           -632.463767689 eV
  Total XC Energy     :      -1284.329864435 Ha         -34948.393765961 eV
  ------------------------------------ 
  LDA X and C from self-consistent density 
  X Energy LDA        :      -1197.524853191 Ha         -32586.309228491 eV
  C Energy LDA        :        -42.069284180 Ha          -1144.763467448 eV
  ------------------------------------ 
  End decomposition of the XC Energy 
  ------------------------------------ 

------------------------------------------------------------
  Relaxation / MD: End force evaluation.       :  max(cpu_time)    wall_clock(cpu1)
  | Time for this force evaluation             :      351.262 s         351.563 s

------------------------------------------------------------
  Geometry optimization: Attempting to predict improved coordinates.

  +-------------------------------------------------------------------+
  | Generalized derivatives on lattice vectors [eV/A]                 |
  +-------------------------------------------------------------------+
  |lattice_vector       0.00522664      -0.00057457      -0.00152900  |
  |lattice_vector      -0.00056565       0.00952837       0.00029885  |
  |lattice_vector      -0.00122340       0.00024289       0.00046874  |
  +-------------------------------------------------------------------+
  | Forces on lattice vectors cleaned from atomic contributions [eV/A]|
  +-------------------------------------------------------------------+
  |lattice_vector      -0.00522664       0.00057457       0.00152900  |
  |lattice_vector       0.00056565      -0.00952837      -0.00029885  |
  |lattice_vector       0.00122340      -0.00024289      -0.00046874  |
  +-------------------------------------------------------------------+
  Symmetrized total atomic cartesian forces [eV/Ang]:
  |   1    -0.3978028813E-02     0.4140006318E-02     0.3956213675E-02
  |   2     0.3396150085E-02     0.2889418756E-02     0.3933119975E-03
  |   3     0.6717581588E-02    -0.1131406140E-02     0.4345626083E-02
  |   4    -0.8992601189E-03    -0.2253964295E-02     0.2023545579E-04
  |   5    -0.7732866111E-02     0.3586444336E-02    -0.6243421807E-03
  |   6     0.2139524048E-02    -0.2901646480E-02    -0.8552706539E-02
  |   7     0.9535152719E-04     0.3961029369E-02    -0.2119206489E-02
  |   8    -0.3288759252E-03    -0.5754004701E-02     0.3922001347E-02
  |   9     0.4254855047E-02    -0.2808860980E-02    -0.5746897759E-03
  |  10     0.9659571771E-03     0.2204147730E-02     0.5494902665E-02
  |  11     0.9242078223E-03    -0.5164266585E-02     0.5375519295E-03
  |  12    -0.5554596326E-02     0.3233102671E-02    -0.6798898169E-02
  +-------------------------------------------------------------------+
  | Symmetrized forces on lattice vectors cleaned from symmetrized
  | atomic contributions [eV/A]|
  +-------------------------------------------------------------------+
  |lattice_vector      -0.00522664       0.00000000       0.00000000  |
  |lattice_vector       0.00000000      -0.00952837       0.00000000  |
  |lattice_vector       0.00000000       0.00000000      -0.00046874  |
  +-------------------------------------------------------------------+
  Removing unitary transformations (pure translations, rotations) from forces on atoms.
  Atomic forces before filtering:
  | Net force on center of mass :   0.209070E-17  0.418139E-17  0.000000E+00 eV/A
  Atomic forces after filtering:
  | Net force on center of mass :  -0.348449E-17 -0.278760E-17  0.000000E+00 eV/A
  Net remaining forces (excluding translations, rotations) in present geometry:
  || Forces on atoms   || =   0.855271E-02 eV/A.
  || Forces on lattice || =   0.952837E-02 eV/A^3.
  Maximum force component is  0.952837E-02 eV/A.
  Present geometry is converged.

  Symmetry-reduced parameters:
  | atomic   1          0.504215174399766E+00
  | atomic   2          0.413419871742355E-02
  | atomic   3          0.396246659783241E-02
  | atomic   4          0.414910312172090E-02
  | atomic   5          0.415496214630366E-02
  | atomic   6          0.504414197538146E+00
  | atomic   7          0.419812206226849E-02
  | atomic   8          0.504227880077730E+00
  | atomic   9          0.401592745241258E-02
  | atomic  10          0.504264035049743E+00
  | atomic  11          0.504243990194024E+00
  | atomic  12          0.504362116807403E+00
  | atomic  13          0.616750619394629E+00
  | atomic  14          0.121867303057434E+00
  | atomic  15          0.406033653444001E+00
  | atomic  16          0.891795048721681E+00
  | atomic  17          0.886598530367489E+00
  | atomic  18          0.906016871527994E+00
  | atomic  19          0.116611209342327E+00
  | atomic  20          0.386523639727219E+00
  | atomic  21          0.602589498970658E+00
  | atomic  22          0.391764221048502E+00
  | atomic  23          0.621993517609323E+00
  | atomic  24          0.102353898270582E+00
  | atomic  25          0.391781921798854E+00
  | atomic  26          0.886627827209615E+00
  | atomic  27          0.602580099976221E+00
  | atomic  28          0.116694379430066E+00
  | atomic  29          0.121928671830047E+00
  | atomic  30          0.102359875161180E+00
  | atomic  31          0.891809267450353E+00
  | atomic  32          0.621943425598804E+00
  | atomic  33          0.406017532978933E+00
  | atomic  34          0.616709027295283E+00
  | atomic  35          0.386498176672164E+00
  | atomic  36          0.906035989107142E+00
  | lattice  1          0.587755723344731E+01
  | lattice  2          0.597026090829272E+01
  | lattice  3          0.734576499480037E+01
  Symmetry-reduced forces:
  | atomic   1         -0.233810920259975E-01
  | atomic   2          0.247169178820970E-01
  | atomic   3          0.290614159284627E-01
  | atomic   4          0.199610665004935E-01
  | atomic   5          0.172505838444648E-01
  | atomic   6          0.288917750292184E-02
  | atomic   7          0.394829702526942E-01
  | atomic   8         -0.675478984711720E-02
  | atomic   9          0.319219479590898E-01
  | atomic  10         -0.528545281660936E-02
  | atomic  11         -0.134567549166442E-01
  | atomic  12          0.148644902806684E-03
  | atomic  13         -0.454503631485341E-01
  | atomic  14          0.214120084166023E-01
  | atomic  15         -0.458627093551560E-02
  | atomic  16          0.125751750438986E-01
  | atomic  17         -0.173235865468621E-01
  | atomic  18         -0.628261723014220E-01
  | atomic  19          0.560434058364285E-03
  | atomic  20          0.236483788011021E-01
  | atomic  21         -0.155671928401134E-01
  | atomic  22         -0.193298707301307E-02
  | atomic  23         -0.343529093348056E-01
  | atomic  24          0.288101002015962E-01
  | atomic  25          0.250081540569653E-01
  | atomic  26         -0.167696329058362E-01
  | atomic  27         -0.422153603870257E-02
  | atomic  28          0.567746859350689E-02
  | atomic  29          0.131593370293984E-01
  | atomic  30          0.403642636446320E-01
  | atomic  31          0.543208437120873E-02
  | atomic  32         -0.308320189115173E-01
  | atomic  33          0.394873014641177E-02
  | atomic  34         -0.326474578129775E-01
  | atomic  35          0.193024664891180E-01
  | atomic  36         -0.499431081701674E-01
  | lattice  1         -0.522664168801863E-02
  | lattice  2         -0.952837277053412E-02
  | lattice  3         -0.468738308163504E-03
------------------------------------------------------------
  Final atomic structure:
                         x [A]             y [A]             z [A]
  lattice_vector         5.87755723        0.00000000        0.00000000
  lattice_vector         0.00000000        5.97026091        0.00000000
  lattice_vector         0.00000000        0.00000000        7.34576499

            atom        -2.91400369        0.02468224        0.02910735  Pd
            atom         0.02438659        0.02480621       -3.64045684  Pd
            atom         0.02467470       -2.95988891        0.02950006  Pd
            atom        -2.91371651       -2.95979273       -3.64083941  Pd
            atom        -2.25257017        0.72757960        2.98262780  Se
            atom        -0.63598079       -0.67703636       -0.69037798  Se
            atom         0.68538906        2.30764698       -2.91928415  Se
            atom         2.30261663       -2.25679732        0.75186768  Se
            atom         2.30272067       -0.67686145       -2.91935319  Se
            atom         0.68587789        0.72794598        0.75191159  Se
            atom        -0.63589722       -2.25709639        2.98250938  Se
            atom        -2.25281463        2.30749496       -0.69023754  Se

  Fractional coordinates:
                         L1                L2                L3
       atom_frac        -0.49578483        0.00413420        0.00396247  Pd
       atom_frac         0.00414910        0.00415496       -0.49558580  Pd
       atom_frac         0.00419812       -0.49577212        0.00401593  Pd
       atom_frac        -0.49573596       -0.49575601       -0.49563788  Pd
       atom_frac        -0.38324938        0.12186730        0.40603365  Se
       atom_frac        -0.10820495       -0.11340147       -0.09398313  Se
       atom_frac         0.11661121        0.38652364       -0.39741050  Se
       atom_frac         0.39176422       -0.37800648        0.10235390  Se
       atom_frac         0.39178192       -0.11337217       -0.39741990  Se
       atom_frac         0.11669438        0.12192867        0.10235988  Se
       atom_frac        -0.10819073       -0.37805657        0.40601753  Se
       atom_frac        -0.38329097        0.38649818       -0.09396401  Se
------------------------------------------------------------

------------------------------------------------------------------------------
  Final output of selected total energy values:

  The following output summarizes some interesting total energy values
  at the end of a run (AFTER all relaxation, molecular dynamics, etc.).

  | Total energy of the DFT / Hartree-Fock s.c.f. calculation      :       -1087911.124096975 eV
  | Final zero-broadening corrected energy (caution - metals only) :       -1087911.125671015 eV
  | For reference only, the value of 1 Hartree used in FHI-aims is :             27.211384500 eV
  | For reference only, the overall average (free atom contribution
  | + realspace contribution) of the electrostatic potential after
  | s.c.f. convergence is                                          :            -17.193958143 eV

  Before relying on these values, please be sure to understand exactly which
  total energy value is referred to by a given number. Different objects may
  all carry the same name 'total energy'. Definitions:

  Total energy of the DFT / Hartree-Fock s.c.f. calculation:
  | Note that this energy does not include ANY quantities calculated after the
  | s.c.f. cycle, in particular not ANY RPA, MP2, etc. many-body perturbation terms.

  Final zero-broadening corrected energy:
  | For metallic systems only, a broadening of the occupation numbers at the Fermi
  | level can be extrapolated back to zero broadening by an electron-gas inspired
  | formula. For all systems that are not real metals, this value can be
  | meaningless and should be avoided.

------------------------------------------------------------------------------
  Methods described in the following list of references were used in this FHI-aims run.
  If you publish the results, please make sure to cite these reference if they apply.
  FHI-aims is an academic code, and for our developers (often, Ph.D. students
  and postdocs), scientific credit in the community is essential.
  Thank you for helping us!

  For any use of FHI-aims, please cite:

    Volker Blum, Ralf Gehrke, Felix Hanke, Paula Havu, Ville Havu,
    Xinguo Ren, Karsten Reuter, and Matthias Scheffler
    'Ab initio molecular simulations with numeric atom-centered orbitals'
    Computer Physics Communications 180, 2175-2196 (2009)
    http://dx.doi.org/10.1016/j.cpc.2009.06.022


  For the analytical stress tensor used in your run, please cite:

    Franz Knuth, Christian Carbogno, Viktor Atalla, Volker Blum, Matthias Scheffler
    'All-electron formalism for total energy strain derivatives and
    stress tensor components for numeric atom-centered orbitals'
    Computer Physics Communications 190, 33-50 (2015).
    http://dx.doi.org/10.1016/j.cpc.2015.01.003


  The provided symmetry information was generated with SPGlib:

    Atsushi Togo, Yusuke Seto, Dimitar Pashov
    SPGlib 1.7.3 obtained from http://spglib.sourceforge.net
    Copyright (C) 2008 Atsushi Togo


  The ELSI infrastructure was used in your run to solve the Kohn-Sham electronic structure.
  Please check out http://elsi-interchange.org to learn more.
  If scalability is important for your project, please acknowledge ELSI by citing:

    V. W-z. Yu, F. Corsetti, A. Garcia, W. P. Huhn, M. Jacquelin, W. Jia,
    B. Lange, L. Lin, J. Lu, W. Mi, A. Seifitokaldani, A. Vazquez-Mayagoitia,
    C. Yang, H. Yang, and V. Blum
    'ELSI: A unified software interface for Kohn-Sham electronic structure solvers'
    Computer Physics Communications 222, 267-285 (2018).
    http://dx.doi.org/10.1016/j.cpc.2017.09.007


  For the real-space grid partitioning and parallelization used in this calculation, please cite:

    Ville Havu, Volker Blum, Paula Havu, and Matthias Scheffler,
    'Efficient O(N) integration for all-electron electronic structure calculation'
    'using numerically tabulated basis functions'
    Journal of Computational Physics 228, 8367-8379 (2009).
    http://dx.doi.org/10.1016/j.jcp.2009.08.008

  Of course, there are many other important community references, e.g., those cited in the
  above references. Our list is limited to references that describe implementations in the
  FHI-aims code. The reason is purely practical (length of this list) - please credit others as well.

------------------------------------------------------------
          Leaving FHI-aims.
          Date     :  20200420, Time     :  211620.273

          Computational steps:
          | Number of self-consistency cycles          :          122
          | Number of SCF (re)initializations          :            6
          | Number of relaxation steps                 :            5

          Detailed time accounting                     :  max(cpu_time)    wall_clock(cpu1)
          | Total time                                 :     2140.551 s        2141.486 s
          | Preparation time                           :        0.551 s           0.637 s
          | Boundary condition initalization           :        0.695 s           0.695 s
          | Grid partitioning                          :        2.182 s           2.181 s
          | Preloading free-atom quantities on grid    :        5.818 s           5.817 s
          | Free-atom superposition energy             :        0.862 s           0.862 s
          | Total time for integrations                :      347.869 s         347.843 s
          | Total time for solution of K.-S. equations :       51.760 s          51.813 s
          | Total time for EV reorthonormalization     :        0.696 s           0.539 s
          | Total time for density & force components  :     1341.945 s        1341.941 s
          | Total time for mixing & preconditioning    :       86.806 s          86.817 s
          | Total time for Hartree multipole update    :        0.530 s           0.537 s
          | Total time for Hartree multipole sum       :      277.870 s         277.876 s
          | Total time for total energy evaluation     :        0.069 s           0.082 s
          | Total time for scaled ZORA corrections     :        0.000 s           0.000 s
          | Total time for vdW correction              :       20.705 s          20.720 s

          Partial memory accounting:
          | Residual value for overall tracked memory usage across tasks:     0.000000 MB (should be 0.000000 MB)
          | Peak values for overall tracked memory usage:
          |   Minimum:       55.598 MB (on task  8 after allocating d_wave)
          |   Maximum:       60.657 MB (on task  3 after allocating d_wave)
          |   Average:       56.653 MB
          | Largest tracked array allocation:
          |   Minimum:       10.021 MB (overlap_matrix on task  0)
          |   Maximum:       10.021 MB (overlap_matrix on task  0)
          |   Average:       10.021 MB
          Note:  These values currently only include a subset of arrays which are explicitly tracked.
          The "true" memory usage will be greater.

          Have a nice day.
------------------------------------------------------------
