------------------------------------------------------------
          Invoking FHI-aims ...

          When using FHI-aims, please cite the following reference:

          Volker Blum, Ralf Gehrke, Felix Hanke, Paula Havu,
          Ville Havu, Xinguo Ren, Karsten Reuter, and Matthias Scheffler,
          'Ab Initio Molecular Simulations with Numeric Atom-Centered Orbitals',
          Computer Physics Communications 180, 2175-2196 (2009)

          For any questions about FHI-aims, please visit the aimsclub website
          with its forums and wiki. Contributions to both the forums and the
          wiki are warmly encouraged - they are for you, and everyone is welcome there.

------------------------------------------------------------



  Date     :  20200420, Time     :  113454.092
  Time zero on CPU 1             :   0.109940000000000E+00  s.
  Internal wall clock time zero  :           356614494.092  s.

  FHI-aims created a unique identifier for this run for later identification
  aims_uuid : 18DD5C0A-6AFA-4D30-A04E-DC7789BFDC14

  Build configuration of the current instance of FHI-aims
  -------------------------------------------------------
  FHI-aims version      : 200112
  Commit number         : 23daeca3f
  CMake host system     : Linux-3.10.0-693.21.1.el7.x86_64
  CMake version         : 3.13.3
  Fortran compiler      : /sw/installed/impi/2018.4.274-iccifort-2019.1.144-GCC-8.2.0-2.31.1/bin64/mpiifort (Intel) version 19.0.0.20181018
  Fortran compiler flags: -O3 -ip -fp-model precise
  C compiler            : /sw/installed/impi/2018.4.274-iccifort-2019.1.144-GCC-8.2.0-2.31.1/bin64/mpiicc (Intel) version 19.0.0.20181018
  C compiler flags      : -O3 -ip -fp-model precise
  Architecture          :
  Using MPI
  Using Scalapack
  Using C files
  Using LibXC
  Using SPGlib
  Using i-PI
  Using RLSY
  Linking against: /sw/installed/imkl/2019.1.144-iimpi-2019a/mkl/lib/intel64/libmkl_intel_lp64.so
                   /sw/installed/imkl/2019.1.144-iimpi-2019a/mkl/lib/intel64/libmkl_sequential.so
                   /sw/installed/imkl/2019.1.144-iimpi-2019a/mkl/lib/intel64/libmkl_core.so
                   /sw/installed/imkl/2019.1.144-iimpi-2019a/mkl/lib/intel64/libmkl_blacs_intelmpi_lp64.so
                   /sw/installed/imkl/2019.1.144-iimpi-2019a/mkl/lib/intel64/libmkl_scalapack_lp64.so

  Using       24 parallel tasks.
  Task        0 on host taurusi6436.taurus.hrsk.tu-dresden.de reporting.
  Task        1 on host taurusi6436.taurus.hrsk.tu-dresden.de reporting.
  Task        2 on host taurusi6436.taurus.hrsk.tu-dresden.de reporting.
  Task        3 on host taurusi6436.taurus.hrsk.tu-dresden.de reporting.
  Task        4 on host taurusi6436.taurus.hrsk.tu-dresden.de reporting.
  Task        5 on host taurusi6436.taurus.hrsk.tu-dresden.de reporting.
  Task        6 on host taurusi6436.taurus.hrsk.tu-dresden.de reporting.
  Task        7 on host taurusi6436.taurus.hrsk.tu-dresden.de reporting.
  Task        8 on host taurusi6436.taurus.hrsk.tu-dresden.de reporting.
  Task        9 on host taurusi6436.taurus.hrsk.tu-dresden.de reporting.
  Task       10 on host taurusi6436.taurus.hrsk.tu-dresden.de reporting.
  Task       11 on host taurusi6436.taurus.hrsk.tu-dresden.de reporting.
  Task       12 on host taurusi6436.taurus.hrsk.tu-dresden.de reporting.
  Task       13 on host taurusi6436.taurus.hrsk.tu-dresden.de reporting.
  Task       14 on host taurusi6436.taurus.hrsk.tu-dresden.de reporting.
  Task       15 on host taurusi6436.taurus.hrsk.tu-dresden.de reporting.
  Task       16 on host taurusi6436.taurus.hrsk.tu-dresden.de reporting.
  Task       17 on host taurusi6436.taurus.hrsk.tu-dresden.de reporting.
  Task       18 on host taurusi6436.taurus.hrsk.tu-dresden.de reporting.
  Task       19 on host taurusi6436.taurus.hrsk.tu-dresden.de reporting.
  Task       20 on host taurusi6436.taurus.hrsk.tu-dresden.de reporting.
  Task       21 on host taurusi6436.taurus.hrsk.tu-dresden.de reporting.
  Task       22 on host taurusi6436.taurus.hrsk.tu-dresden.de reporting.
  Task       23 on host taurusi6436.taurus.hrsk.tu-dresden.de reporting.

  Performing system and environment tests:
  | Environment variable OMP_NUM_THREADS correctly set to 1.
  | Maximum stacksize for task 0: unlimited
  | Maximum stacksize for task 1: unlimited
  | Maximum stacksize for task 2: unlimited
  | Maximum stacksize for task 3: unlimited
  | Maximum stacksize for task 4: unlimited
  | Maximum stacksize for task 5: unlimited
  | Maximum stacksize for task 6: unlimited
  | Maximum stacksize for task 7: unlimited
  | Maximum stacksize for task 8: unlimited
  | Maximum stacksize for task 9: unlimited
  | Maximum stacksize for task 10: unlimited
  | Maximum stacksize for task 11: unlimited
  | Maximum stacksize for task 12: unlimited
  | Maximum stacksize for task 13: unlimited
  | Maximum stacksize for task 14: unlimited
  | Maximum stacksize for task 15: unlimited
  | Maximum stacksize for task 16: unlimited
  | Maximum stacksize for task 17: unlimited
  | Maximum stacksize for task 18: unlimited
  | Maximum stacksize for task 19: unlimited
  | Maximum stacksize for task 20: unlimited
  | Maximum stacksize for task 21: unlimited
  | Maximum stacksize for task 22: unlimited
  | Maximum stacksize for task 23: unlimited
  | Current stacksize for task 0: unlimited
  | Current stacksize for task 1: unlimited
  | Current stacksize for task 2: unlimited
  | Current stacksize for task 3: unlimited
  | Current stacksize for task 4: unlimited
  | Current stacksize for task 5: unlimited
  | Current stacksize for task 6: unlimited
  | Current stacksize for task 7: unlimited
  | Current stacksize for task 8: unlimited
  | Current stacksize for task 9: unlimited
  | Current stacksize for task 10: unlimited
  | Current stacksize for task 11: unlimited
  | Current stacksize for task 12: unlimited
  | Current stacksize for task 13: unlimited
  | Current stacksize for task 14: unlimited
  | Current stacksize for task 15: unlimited
  | Current stacksize for task 16: unlimited
  | Current stacksize for task 17: unlimited
  | Current stacksize for task 18: unlimited
  | Current stacksize for task 19: unlimited
  | Current stacksize for task 20: unlimited
  | Current stacksize for task 21: unlimited
  | Current stacksize for task 22: unlimited
  | Current stacksize for task 23: unlimited
  | Checking for scalapack...
  | Testing pdtran()...
  | All pdtran() tests passed.

  Obtaining array dimensions for all initial allocations:
  
  -----------------------------------------------------------------------
  Parsing control.in (first pass over file, find array dimensions only).
  The contents of control.in will be repeated verbatim below
  unless switched off by setting 'verbatim_writeout .false.' .
  in the first line of control.in .
  -----------------------------------------------------------------------
  
  #===============================================================================
  # FHI-aims file: ./control.in
  # Created using the Atomic Simulation Environment (ASE)
  # Thu Apr  2 11:27:09 2020
  #===============================================================================
  xc                                 pbe
  # include_spin_orbit
  # vdw_correction_hirshfeld
  many_body_dispersion_nl 	 beta=0.81
  spin                               none
  k_grid 	 	 5 5 4
  relativistic                       atomic_zora scalar
  energy_tolerance 1e-2
  harmonic_length_scale  0.015
  ### SCF settings
  adjust_scf 	 always 	 3
  # frozen_core_scf 	 .true.
  # charge_mix_param  0.05
  # occupation_type 	 gaussian 	 0.01
  # sc_accuracy_eev   1E-3 	 	 # sum of eigenvalues convergence
  # sc_accuracy_etot  1E-6 	 	 # total energy convergence
  # sc_accuracy_rho   1E-3 	 	 # electron density convergence
  # elsi_restart 	 read_and_write 	 1000
  ### geometry optimisation section
  relax_geometry 	 bfgs 	 1E-2
  relax_unit_cell 	 full
  #===============================================================================
  
  ################################################################################
  #
  #  FHI-aims code project
  # Volker Blum, Fritz Haber Institute Berlin, 2009
  #
  #  Suggested "tight" defaults for Pd atom (to be pasted into control.in file)
  #
  ################################################################################
    species        Pd
  #     global species definitions
      nucleus             46
      mass                106.42
  #
      l_hartree           6
  #
      cut_pot             4.0  2.0  1.0
      basis_dep_cutoff    1e-4
  #
      radial_base         62 7.0
      radial_multiplier   2
      angular_grids specified
        division   0.3627   50
        division   0.7349  110
        division   1.0624  194
        division   1.2496  302
        division   1.6740  434
  #      division   2.0126  590
  #      division   2.0830  770
  #      division   2.7936 1202
  #       outer_grid  974
        outer_grid  434
  ################################################################################
  #
  #  Definition of "minimal" basis
  #
  ################################################################################
  #     valence basis states
      valence      5  s   1.
      valence      4  p   6.
      valence      4  d   9.
  #     ion occupancy
      ion_occ     5  s   0.
      ion_occ     4  p   6.
      ion_occ     4  d   8.
  ################################################################################
  #
  #  Suggested additional basis functions. For production calculations,
  #  uncomment them one after another (the most important basis functions are
  #  listed first).
  #
  #  Constructed for dimers: 2.0 A, 2.275 A, 2.75 A, 3.75 A
  #
  ################################################################################
  #  "First tier" - max. impr. -120.76  meV, min. impr. -5.71 meV
       ionic 5 p auto
       hydro 4 f 8
       hydro 5 g 10
       hydro 3 s 2.6
       hydro 3 d 2.5
  #  "Second tier" - max. impr. -5.00  meV, min. impr. -0.62 meV
  #     hydro 5 f 17.2
  #     hydro 6 h 14
  #     hydro 4 d 4
  #     hydro 5 f 7.6
  #     hydro 3 p 3.3
  #     hydro 4 s 9.4
  #  "Third tier" - max. impr. -0.54  meV, min. impr. -0.14 meV
  #     hydro 4 f 20
  #     hydro 5 g 12.8
  #     hydro 5 d 9.8
  #     hydro 6 h 15.2
  #     hydro 5 s 10
  #     hydro 6 p 9.8
  #  "Fourth tier" - max. impr. -0.15  meV, min. impr. -0.05 meV
  #     hydro 5 f 9.2
  #     hydro 2 s 5.6
  #     hydro 5 f 43.2
  #     hydro 5 d 13.2
  #     hydro 5 g 14
  #     hydro 4 p 4.7
  ################################################################################
  #
  #  FHI-aims code project
  # Volker Blum, Fritz Haber Institute Berlin, 2009
  #
  #  Suggested "tight" defaults for Se atom (to be pasted into control.in file)
  #
  ################################################################################
    species        Se
  #     global species definitions
      nucleus             34
      mass                78.96
  #
      l_hartree           6
  #
      cut_pot             4.0          2.0  1.0
      basis_dep_cutoff    1e-4
  #
      radial_base         55 7.0
      radial_multiplier   2
      angular_grids       specified
        division   0.0830  110
        division   0.1357  194
        division   0.7377  302
        division   0.8610  434
  #      division   0.9640  590
  #      division   1.0773  770
  #      division   2.5539  974
  #      outer_grid  974
        outer_grid  434
  ################################################################################
  #
  #  Definition of "minimal" basis
  #
  ################################################################################
  #     valence basis states
      valence      4  s   2.
      valence      4  p   4.
      valence      3  d  10.
  #     ion occupancy
      ion_occ      4  s   1.
      ion_occ      4  p   3.
      ion_occ      3  d  10.
  ################################################################################
  #
  #  Suggested additional basis functions. For production calculations,
  #  uncomment them one after another (the most important basis functions are
  #  listed first).
  #
  #  Constructed for dimers: 1.85 A, 2.15 A, 2.50 A, 3.00 A, 4.00 A
  #
  ################################################################################
  #  "First tier" - improvements: -336.21 meV to -36.85 meV
       hydro 3 d 4.3
       hydro 2 p 1.6
       hydro 4 f 7.2
       ionic 4 s auto
  #  "Second tier" - improvements: -14.39 meV to -1.49 meV
  #     hydro 5 g 10.4
  #     hydro 4 p 4.5
  #     hydro 4 d 6.2
  #     hydro 4 f 11.2
  #     hydro 1 s 0.65
  #     hydro 6 h 15.2
  #  "Third tier" - improvements: -0.46 meV and below
  #     hydro 5 g 14.4
  #     ionic 4 d auto
  #     hydro 4 f 22.4
  #     hydro 5 f 7.4
  #     hydro 5 p 8
  #     hydro 5 s 9.4
  #  "Fourth tier" - improvements: -0.12 meV and below
  #     hydro 5 d 11.6
  #     hydro 6 h 18
  #     hydro 4 p 4
  #     hydro 5 f 16
  #     hydro 4 s 3.9
  #
  #
  
  -----------------------------------------------------------------------
  Completed first pass over input file control.in .
  -----------------------------------------------------------------------
  
  
  -----------------------------------------------------------------------
  Parsing geometry.in (first pass over file, find array dimensions only).
  The contents of geometry.in will be repeated verbatim below
  unless switched off by setting 'verbatim_writeout .false.' .
  in the first line of geometry.in .
  -----------------------------------------------------------------------
  
  #
  # This is the geometry file that corresponds to the current relaxation step.
  # If you do not want this file to be written, set the "write_restart_geometry" flag to .false.
  #  aims_uuid : 1698DE78-1FA1-42FF-A3D9-77F9FBA81682
  #
  lattice_vector      5.86393491      0.00000000      0.00000000
  lattice_vector      0.00000000      5.96474848      0.00000000
  lattice_vector      0.00000000      0.00000000      7.38581199
  atom_frac       0.50323239      0.00271821      0.00254036 Pd
  atom_frac       0.00269756      0.00273620      0.50349586 Pd
  atom_frac       0.00279854      0.50324918      0.00255281 Pd
  atom_frac       0.50333256      0.50326942      0.50348517 Pd
  atom_frac       0.61512460      0.12030238      0.40469252 Se
  atom_frac       0.89198430      0.88629508      0.90506431 Se
  atom_frac       0.11457647      0.38575350      0.60205940 Se
  atom_frac       0.39146986      0.62084837      0.10137973 Se
  atom_frac       0.39149141      0.88626108      0.60204891 Se
  atom_frac       0.11456968      0.12028057      0.10131842 Se
  atom_frac       0.89193945      0.62084571      0.40468832 Se
  atom_frac       0.61510440      0.38576153      0.90499542 Se
  #
  # What follows is the current estimated Hessian matrix constructed by the BFGS algorithm.
  # This is NOT the true Hessian matrix of the system.
  # If you do not want this information here, switch it off using the "hessian_to_restart_geometry" keyword.
  #
  trust_radius             0.0122424362
  hessian_block                1       1           6.093146          -0.553701          -2.570515          -0.553701           8.14246
  hessian_block                1       2          -0.421583           1.658579           0.769812          -0.245754           1.69519
  hessian_block                1       3          -0.535495           1.840276           0.655152          -0.068620          -0.23350
  hessian_block                1       4           0.597259          -0.045412          -0.359490           0.168447          -0.82910
  hessian_block                1       5          -0.018071          -0.547415          -0.248374          -1.118180           2.57177
  hessian_block                1       6          -1.084599          -1.639453          -0.453119           1.519607          -3.37492
  hessian_block                1       7          -1.016088           2.428496           2.393802           0.398424          -0.36975
  hessian_block                1       8           0.160150          -1.966783          -0.580185          -0.152447          -2.68765
  hessian_block                1       9           0.006394          -0.425802           0.236101           0.618061          -3.46225
  hessian_block                1      10          -2.887294           2.279579           1.587470          -0.674100           1.44173
  hessian_block                1      11           0.853667          -3.080246          -2.803683           0.154483           0.47958
  hessian_block                1      12          -0.181570           0.051882           1.373031          -0.046218          -1.72655
  hessian_block                2       2           6.959729           1.139426           2.459765           1.139426           7.44833
  hessian_block                2       3           1.997841           1.526064           0.780082          -0.466872          -0.44010
  hessian_block                2       4           0.126585           0.264208           0.282543          -0.907752          -0.49139
  hessian_block                2       5          -2.099529          -0.088217          -1.154898           2.318454           1.61333
  hessian_block                2       6          -1.960889          -1.417256          -0.424661          -2.465478          -2.80134
  hessian_block                2       7           0.910120           1.409509          -0.874947          -0.795060          -2.36921
  hessian_block                2       8          -1.403316          -1.584918          -0.389532          -0.369598          -0.17795
  hessian_block                2       9          -2.628693           0.159978          -1.228583          -1.323780          -2.97831
  hessian_block                2      10           1.983029           1.157755           0.948618           1.867066           1.70720
  hessian_block                2      11          -1.708893          -2.887277           0.515573          -0.369897          -1.53992
  hessian_block                2      12          -0.188491           0.566483          -0.847478          -0.285089          -0.01881
  hessian_block                3       3           8.109547          -0.595326           3.455230          -0.595326           6.30723
  hessian_block                3       4           0.354482          -0.238777          -0.086047          -0.955828           0.25577
  hessian_block                3       5          -0.875841           0.090855          -0.595507           2.050678           0.05848
  hessian_block                3       6          -2.672783           0.961628          -1.911361          -2.562659          -1.62401
  hessian_block                3       7           0.962770          -0.026510           1.507889          -0.173013           0.22229
  hessian_block                3       8          -3.613894          -0.127735          -1.921156          -0.989209          -0.76387
  hessian_block                3       9          -0.955373           0.317556          -0.086218          -1.858860           0.13985
  hessian_block                3      10           2.723172           0.117087           1.506120           3.396569          -2.22336
  hessian_block                3      11          -1.489145           0.322963          -1.783051          -0.529969          -0.23253
  hessian_block                3      12          -2.439372          -0.286250          -0.600491          -1.148725           0.18077
  hessian_block                4       4           6.116445           0.099288          -2.088470           0.099288           6.41035
  hessian_block                4       5          -0.669446           0.552517           0.259793          -0.018875          -2.63087
  hessian_block                4       6          -0.172846           1.160986           0.064511           0.051819           0.65831
  hessian_block                4       7          -2.507333          -1.003462           0.982533          -0.105457          -0.13618
  hessian_block                4       8          -0.253226           0.278085          -0.083030           0.197127           0.05362
  hessian_block                4       9          -0.222644           0.869073           0.142465           0.652244          -1.13425
  hessian_block                4      10          -0.139124          -0.944804          -0.082957          -0.142909          -0.23584
  hessian_block                4      11          -1.275105           0.396377           0.669544          -0.904239          -0.41602
  hessian_block                4      12          -0.389138           0.287073           0.049615           0.190983           0.14263
  hessian_block                5       5           5.893793          -0.822415          -0.956477          -0.822415           9.02749
  hessian_block                5       6           0.809650          -2.722064          -0.698080           0.659903          -4.04992
  hessian_block                5       7          -0.458442           3.467093           1.771061          -0.697557          -0.20442
  hessian_block                5       8           0.537934          -1.756031           0.054498           0.629411          -0.87831
  hessian_block                5       9          -1.573901          -0.913332           2.013868          -0.058857          -5.59901
  hessian_block                5      10          -0.861134           2.630790          -0.042836          -0.529759           2.83694
  hessian_block                5      11           0.470691          -4.046779          -1.873720           1.107644          -0.44598
  hessian_block                5      12           0.410206           0.930660           1.205643          -0.296108          -0.65245
  hessian_block                6       6           7.500141           3.407054           4.612118           3.407054          11.24050
  hessian_block                6       7          -1.844244          -3.620022          -0.886939           0.901581           1.38097
  hessian_block                6       8           2.251419           2.912198           2.744072           0.490453           1.14666
  hessian_block                6       9           0.837567           0.928705           1.139002           2.779963           5.05680
  hessian_block                6      10          -4.079116          -4.390726          -6.848612          -3.583691          -6.01369
  hessian_block                6      11           2.338603           4.458008           0.871095          -0.771868          -0.32586
  hessian_block                6      12          -0.356993          -0.898407           1.355426           0.432669           0.35353
  hessian_block                7       7           9.219888          -1.333892           2.037034          -1.333892           7.01822
  hessian_block                7       8          -1.714407           0.795180          -0.383158          -0.088380          -0.68520
  hessian_block                7       9           0.536586           0.422338           0.013522          -5.001021           0.66047
  hessian_block                7      10           1.343373          -0.894190          -0.480319           1.584552          -1.08618
  hessian_block                7      11          -6.143430           2.509171          -2.632737           2.530242          -3.29861
  hessian_block                7      12           2.277120          -1.027524           1.022228          -0.346605           0.51462
  hessian_block                8       8           5.818894           0.012398          -2.104762           0.012398           7.05267
  hessian_block                8       9           0.378679          -0.144258          -0.277037           2.330412           0.54877
  hessian_block                8      10          -2.093137          -0.724103           1.117879          -2.444003          -0.80597
  hessian_block                8      11           2.458606          -0.219540          -2.077044          -0.092625           1.09085
  hessian_block                8      12          -0.961791           1.358144           2.440465           1.643820          -2.24659
  hessian_block                9       9           5.503894          -0.323861          -1.078811          -0.323861          11.67520
  hessian_block                9      10          -0.836995          -1.562326          -0.008198          -1.056390          -2.00472
  hessian_block                9      11          -0.042703           6.073526           1.840409          -0.235196          -1.09476
  hessian_block                9      12           0.563101          -2.325501          -0.989343           0.401186          -0.16076
  hessian_block               10      10           8.479361           3.767449           4.595718           3.767449          10.63991
  hessian_block               10      11          -1.494626          -1.725560           1.279874          -0.337494          -1.19692
  hessian_block               10      12          -0.571598          -0.459222          -1.883087          -1.099019          -1.41204
  hessian_block               11      11          10.278371          -2.134796           1.420785          -2.134796           8.43978
  hessian_block               11      12          -2.680127           1.583714          -0.605476           0.334155           0.18742
  hessian_block               12      12           6.084565           0.218951          -2.520531           0.218951           6.48525
  hessian_block_lv             1       1          34.769017           5.685103           6.358175           5.685103          24.83675
  hessian_block_lv_atom        1       1           0.998123           0.423811          -0.147586          -3.293621          -3.09611
  hessian_block_lv_atom        1       2          -2.031799          -1.715091           0.006305          -3.022019          -3.26252
  hessian_block_lv_atom        1       3          -2.535317          -1.593706           0.060168           0.399733           0.65477
  hessian_block_lv_atom        1       4           0.111701           0.213078          -0.044416           0.606990           0.41968
  hessian_block_lv_atom        1       5           2.450197           2.110281           0.828203          -3.502798          -2.44460
  hessian_block_lv_atom        1       6           2.945959           2.472742          -0.105855           3.263599           2.91679
  hessian_block_lv_atom        1       7          -4.463334          -4.859371          -0.253387           0.239628           0.87286
  hessian_block_lv_atom        1       8           1.359213           0.470535          -0.942674           1.471075           0.71959
  hessian_block_lv_atom        1       9          -1.953562          -1.978442          -1.223906           5.745505           5.96865
  hessian_block_lv_atom        1      10          -1.792978          -0.359246           0.790517          -0.771969           0.42022
  hessian_block_lv_atom        1      11           5.901854           6.241139           0.685008          -0.128849          -1.62147
  hessian_block_lv_atom        1      12          -0.990056          -1.425728           0.347626          -1.007277          -1.54789
  symmetry_n_params 39 3 36
  symmetry_params a1 b2 c3 x0 x1 x2 x3 x4 x5 x6 x7 x8 x9 x10 x11 x12 x13 x14 x15 x16 x17 x18 x19 x20 x21 x22 x23 x24 x25 x26 x27 x28 x
  symmetry_lv a1 , 0 , 0
  symmetry_lv 0 , b2 , 0
  symmetry_lv 0 , 0 , c3
  symmetry_frac x0 , x1 , x2
  symmetry_frac x3 , x4 , x5
  symmetry_frac x6 , x7 , x8
  symmetry_frac x9 , x10 , x11
  symmetry_frac x12 , x13 , x14
  symmetry_frac x15 , x16 , x17
  symmetry_frac x18 , x19 , x20
  symmetry_frac x21 , x22 , x23
  symmetry_frac x24 , x25 , x26
  symmetry_frac x27 , x28 , x29
  symmetry_frac x30 , x31 , x32
  symmetry_frac x33 , x34 , x35
  
  -----------------------------------------------------------------------
  Completed first pass over input file geometry.in .
  -----------------------------------------------------------------------
  

  Basic array size parameters:
  | Number of species                 :        2
  | Number of atoms                   :       12
  | Number of lattice vectors         :        3
  | Max. basis fn. angular momentum   :        4
  | Max. atomic/ionic basis occupied n:        5
  | Max. number of basis fn. types    :        3
  | Max. radial fns per species/type  :       10
  | Max. logarithmic grid size        :     1444
  | Max. radial integration grid size :      125
  | Max. angular integration grid size:      434
  | Max. angular grid division number :        8
  | Radial grid for Hartree potential :     1444
  | Number of spin channels           :        1

------------------------------------------------------------
          Reading file control.in.
------------------------------------------------------------
  XC: Using PBE gradient-corrected functionals.
  Using libMBD for calculating MBD and TS energies
  Spin treatment: No spin polarisation.
  Found k-point grid:         5         5         4
  Scalar relativistic treatment of kinetic energy: on-site free-atom approximation to ZORA.
  Max energy increase before discarding BFGS move:   0.100000E-01 eV
  Assuming qualitatively harmonic for steps shorter than   0.150000E-01 A.
  S.C.F. convergence parameters will be adjusted in iteration number     3 of each new s.c.f. cycle.
  Geometry relaxation: Modified BFGS - TRM (trust radius method) for lattice optimization.
  Convergence accuracy for geometry relaxation: Maximum force <   0.100000E-01 eV/A.
 
  Reading configuration options for species Pd                  .
  | Found nuclear charge :  46.0000
  | Found atomic mass :    106.420000000000      amu
  | Found l_max for Hartree potential  :   6
  | Found cutoff potl. onset [A], width [A], scale factor :    4.00000    2.00000    1.00000
  | Threshold for basis-dependent cutoff potential is   0.100000E-03
  | Found data for basic radial integration grid :    62 points, outermost radius =    7.000 A
  | Found multiplier for basic radial grid :   2
  | Found angular grid specification: user-specified.
  | Specified grid contains     6 separate shells.
  | Check grid settings after all constraints further below.
  | Found free-atom valence shell :  5 s   1.000
  | Found free-atom valence shell :  4 p   6.000
  | Found free-atom valence shell :  4 d   9.000
  | Found free-ion valence shell :  5 s   0.000
  | Found free-ion valence shell :  4 p   6.000
  | Found free-ion valence shell :  4 d   8.000
  | Found ionic basis function :  5 p , default cutoff radius.
  | Found hydrogenic basis function :  4 f   8.000
  | Found hydrogenic basis function :  5 g  10.000
  | Found hydrogenic basis function :  3 s   2.600
  | Found hydrogenic basis function :  3 d   2.500
  Species Pd                  : Missing cutoff potential type.
  Defaulting to exp(1/x)/(1-x)^2 type cutoff potential.
  Species Pd: No 'logarithmic' tag. Using default grid for free atom:
  | Default logarithmic grid data [bohr] : 0.1000E-03 0.1000E+03 0.1012E+01
  | Will include ionic basis functions of  2.0-fold positive Pd                   ion.
  Species Pd: On-site basis accuracy parameter (for Gram-Schmidt orthonormalisation) not specified.
  Using default value basis_acc =  0.1000000E-03.
  Species Pd                  : Using default innermost maximum threshold i_radial=  2 for radial functions.
  Species Pd                  : Default cutoff onset for free atom density etc. : 0.40000000E+01 AA.
  Species Pd                  : Basic radial grid will be enhanced according to radial_multiplier =   2, to contain   125 grid points.
 
  Reading configuration options for species Se                  .
  | Found nuclear charge :  34.0000
  | Found atomic mass :    78.9600000000000      amu
  | Found l_max for Hartree potential  :   6
  | Found cutoff potl. onset [A], width [A], scale factor :    4.00000    2.00000    1.00000
  | Threshold for basis-dependent cutoff potential is   0.100000E-03
  | Found data for basic radial integration grid :    55 points, outermost radius =    7.000 A
  | Found multiplier for basic radial grid :   2
  | Found angular grid specification: user-specified.
  | Specified grid contains     5 separate shells.
  | Check grid settings after all constraints further below.
  | Found free-atom valence shell :  4 s   2.000
  | Found free-atom valence shell :  4 p   4.000
  | Found free-atom valence shell :  3 d  10.000
  | Found free-ion valence shell :  4 s   1.000
  | Found free-ion valence shell :  4 p   3.000
  | Found free-ion valence shell :  3 d  10.000
  | Found hydrogenic basis function :  3 d   4.300
  | Found hydrogenic basis function :  2 p   1.600
  | Found hydrogenic basis function :  4 f   7.200
  | Found ionic basis function :  4 s , default cutoff radius.
  Species Se                  : Missing cutoff potential type.
  Defaulting to exp(1/x)/(1-x)^2 type cutoff potential.
  Species Se: No 'logarithmic' tag. Using default grid for free atom:
  | Default logarithmic grid data [bohr] : 0.1000E-03 0.1000E+03 0.1012E+01
  | Will include ionic basis functions of  2.0-fold positive Se                   ion.
  Species Se: On-site basis accuracy parameter (for Gram-Schmidt orthonormalisation) not specified.
  Using default value basis_acc =  0.1000000E-03.
  Species Se                  : Using default innermost maximum threshold i_radial=  2 for radial functions.
  Species Se                  : Default cutoff onset for free atom density etc. : 0.40000000E+01 AA.
  Species Se                  : Basic radial grid will be enhanced according to radial_multiplier =   2, to contain   111 grid points.
 
  Finished reading input file 'control.in'. Consistency checks are next.
 
  MPI_IN_PLACE appears to work with this MPI implementation.
  | Keeping use_mpi_in_place .true. (see manual).
  Target number of points in a grid batch is not set. Defaulting to  100
  Method for grid partitioning is not set. Defaulting to parallel hash+maxmin partitioning.
  Batch size limit is not set. Defaulting to    200
  By default, will store active basis functions for each batch.
  If in need of memory, prune_basis_once .false. can be used to disable this option.
  communication_type for Hartree potential was not specified.
  Defaulting to calc_hartree .
  Defaulting to Pulay charge density mixer.
  Pulay mixer: Number of relevant iterations not set.
  Defaulting to    8 iterations.
  Pulay mixer: Number of initial linear mixing iterations not set.
  Defaulting to    0 iterations.
  Work space size for distributed Hartree potential not set.
  Defaulting to   0.200000E+03 MB.
  Mixing parameter for charge density mixing has not been set.
  Using default: charge_mix_param =     0.0500.
  The mixing parameter will be adjusted in iteration number     3 of each s.c.f. cycle (i.e., each geometry step).
  Algorithm-dependent basis array size parameters:
  | n_max_pulay                         :        8
  Maximum number of self-consistency iterations not provided.
  Presetting  1000 iterations.
  Presetting      1001 iterations before the initial mixing cycle
  is restarted anyway using the sc_init_iter criterion / keyword.
  Presetting a factor      1.000 between actual scf density residual
  and density convergence criterion sc_accuracy_rho below which sc_init_iter
  takes no effect.
 * No s.c.f. convergence criteria (sc_accuracy_*) were provided in control.in.
 * The run will proceed with a reasonable default guess, but please check whether.
 * the s.c.f. cycles seem to take too much or too little time.
  No maximum number of relaxation steps, defaulting to     1000
  Using explicit Hessian from geometry.in.
  Maximum energy tolerance by which TRM/BFGS trajectory may increase over multiple steps:   0.300000E-02
  No trust radius initializer. Defaulting to   0.200000E+00 A.
  Unit cell relaxation: Unit cell will be relaxed fully.
  Unit cell relaxation: Analytical stress will be used.
  Analytical stress will be computed.
  Analytical stress calculation: Only the upper triangle is calculated.
                                 Final output is symmetrized.
  Analytical stress calculation: scf convergence accuracy of stress not set.
                                 Analytical stress self-consistency will not be checked explicitly.
                                 Be sure to set other criteria like sc_accuracy_rho tight enough.
 * Notice: The s.c.f. convergence criterion sc_accuracy_rho was not provided.
 * We used to stop in this case, and ask the user to provide reasonable
 * scf convergence criteria. However, this led some users to employ criteria
 * that led to extremely long run times, e.g., for simple relaxation.
 * We now preset a default value for sc_accuracy_rho if it is not set.
 * You may still wish to check if this setting is too tight or too loose for your needs.
 * Based on n_atoms, FHI-aims chose sc_accuracy_rho =  0.141421E-05 .
  Force calculation: scf convergence accuracy of forces not set.
  Defaulting to 'sc_accuracy_forces not_checked'.
  Handling of forces: Unphysical translation and rotation will be removed from forces.
  No accuracy limit for integral partition fn. given. Defaulting to  0.1000E-14.
  No threshold value for u(r) in integrations given. Defaulting to  0.1000E-05.
  No occupation type (smearing scheme) given. Defaulting to Gaussian broadening, width =  0.1000E-01 eV.
  The width will be adjusted in iteration number     3 of each s.c.f. cycle (i.e., each geometry step).
  S.C.F. convergence parameters will be adjusted in iteration number     3 of the first full s.c.f. cycle only.
  No accuracy for occupation numbers given. Defaulting to  0.1000E-12.
  No threshold value for occupation numbers given. Defaulting to  0.0000E+00.
  No accuracy for fermi level given. Defaulting to  0.1000E-19.
  Maximum # of iterations to find E_F not set. Defaulting to  200.
  Preferred method for the eigenvalue solver ('KS_method') not specified in 'control.in'.
  Defaulting to serial version, LAPACK (via ELSI), since more k-points than CPUs available.
  Will not use alltoall communication since running on < 1024 CPUs.
  Threshold for basis singularities not set.
  Default threshold for basis singularities:  0.1000E-04
  partition_type (choice of integration weights) for integrals was not specified.
  | Using a version of the partition function of Stratmann and coworkers ('stratmann_sparse').
  | At each grid point, the set of atoms used to build the partition table is smoothly restricted to
  | only those atoms whose free-atom density would be non-zero at that grid point.
  Partitioning for Hartree potential was not defined. Using partition_type for integrals.
  | Adjusted default value of keyword multip_moments_threshold to:       0.10000000E-11
  | This value may affect high angular momentum components of the Hartree potential in periodic systems.
  Angular momentum expansion for Kerker preconditioner not set explicitly.
  | Using default value of   0
  No explicit requirement for turning off preconditioner.
  | By default, it will be turned off when the charge convergence reaches
  | sc_accuracy_rho  =   0.141421E-05
  No special mixing parameter while Kerker preconditioner is on.
  Using default: charge_mix_param =     0.0500.
  No q(lm)/r^(l+1) cutoff set for long-range Hartree potential.
  | Using default value of  0.100000E-09 .
  | Verify using the multipole_threshold keyword.
  Defaulting to new monopole extrapolation.
  Density update method: automatic selection selected.
  Using density matrix based charge density update.
  Using density matrix based charge density update.
  Using packed matrix style: index .
  Geometry relaxation: A file "geometry.in.next_step" is written out by default after each step.
  | This file contains the geometry of the current relaxation step as well as
  | the current Hessian matrix needed to restart the relaxation algorithm.
  | If you do not want part or all of this information, use the keywords
  | "write_restart_geometry" or "hessian_to_restart_geometry" to switch the output off.
  Defaulting to use time-reversal symmetry for k-point grid.
  Charge integration errors on the 3D integration grid will be compensated
  by explicit normalization and distribution of residual charges.
  Use the "compensate_multipole_errors" flag to change this behaviour.
------------------------------------------------------------


------------------------------------------------------------
          Reading geometry description geometry.in.
------------------------------------------------------------
  Input structure read successfully.
  The structure contains       12 atoms,  and a total of        456.000 electrons.

  Input geometry:
  | Unit cell:
  |        5.86393491        0.00000000        0.00000000
  |        0.00000000        5.96474848        0.00000000
  |        0.00000000        0.00000000        7.38581199
  | Atomic structure:
  |       Atom                x [A]            y [A]            z [A]
  |    1: Species Pd            2.95092198        0.01621344        0.01876262
  |    2: Species Pd            0.01581832        0.01632074        3.71872576
  |    3: Species Pd            0.01641046        3.00175478        0.01885457
  |    4: Species Pd            2.95150937        3.00187551        3.71864681
  |    5: Species Se            3.60705062        0.71757344        2.98898287
  |    6: Species Se            5.23053788        5.28652723        6.68463483
  |    7: Species Se            0.67186896        2.30092260        4.44669754
  |    8: Species Se            2.29555378        3.70320437        0.74877163
  |    9: Species Se            2.29568015        5.28632443        4.44662006
  |   10: Species Se            0.67182915        0.71744335        0.74831880
  |   11: Species Se            5.23027488        3.70318851        2.98895185
  |   12: Species Se            3.60693216        2.30097050        6.68412602

  Lattice parameters for 3D lattice (in Angstroms) :     5.863935    5.964748    7.385812
  Angle(s) between unit vectors (in degrees)       :    90.000000   90.000000   90.000000

  | The smallest distance between any two atoms is         2.39844399 AA.
  | The first atom of this pair is atom number                      6 .
  | The second atom of this pair is atom number                    10 .
  | Wigner-Seitz cell of the first atom image           0     0     0 .
  | (The Wigner-Seitz cell of the second atom is 0 0 0  by definition.)

  Symmetry information by spglib:
  | Precision set to  0.1E-04
  | Number of Operations  : 1
  | Space group           : 1
  | International         : P1
  | Schoenflies           : C1^1

  Quantities derived from the lattice vectors:
  | Reciprocal lattice vector 1:  1.071496  0.000000  0.000000
  | Reciprocal lattice vector 2:  0.000000  1.053386  0.000000
  | Reciprocal lattice vector 3:  0.000000  0.000000  0.850710
  | Unit cell volume                               :   0.258333E+03  A^3

  Range separation radius for Ewald summation (hartree_convergence_parameter):      3.99346002 bohr.

  Fractional coordinates:
                         L1                L2                L3
       atom_frac         0.50323239        0.00271821        0.00254036  Pd
       atom_frac         0.00269756        0.00273620        0.50349586  Pd
       atom_frac         0.00279854        0.50324918        0.00255281  Pd
       atom_frac         0.50333256        0.50326942        0.50348517  Pd
       atom_frac         0.61512460        0.12030238        0.40469252  Se
       atom_frac         0.89198430        0.88629508        0.90506431  Se
       atom_frac         0.11457647        0.38575350        0.60205940  Se
       atom_frac         0.39146986        0.62084837        0.10137973  Se
       atom_frac         0.39149141        0.88626108        0.60204891  Se
       atom_frac         0.11456968        0.12028057        0.10131842  Se
       atom_frac         0.89193945        0.62084571        0.40468832  Se
       atom_frac         0.61510440        0.38576153        0.90499542  Se

  Number of empty states per atom not set in control.in - providing a guess from actual geometry.
  | Total number of empty states used during s.c.f. cycle:       66
  If you use a very high smearing, use empty_states (per atom!) in control.in to increase this value.

  Structure-dependent array size parameters: 
  | Maximum number of distinct radial functions  :       27
  | Maximum number of basis functions            :      468
  | Number of Kohn-Sham states (occupied + empty):      294
------------------------------------------------------------

------------------------------------------------------------
          Preparing all fixed parts of the calculation.
------------------------------------------------------------
  Determining machine precision:
    2.225073858507201E-308
  Setting up grids for atomic and cluster calculations.

  Creating wave function, potential, and density for free atoms.

  Species: Pd

  List of occupied orbitals and eigenvalues:
    n    l              occ      energy [Ha]    energy [eV]
    1    0           2.0000      -913.269104    -24851.3168
    2    0           2.0000      -130.434372     -3549.2998
    3    0           2.0000       -23.521804      -640.0609
    4    0           2.0000        -3.256918       -88.6253
    5    0           1.0000        -0.157260        -4.2793
    2    1           6.0000      -116.910756     -3181.3035
    3    1           6.0000       -19.103344      -519.8284
    4    1           6.0000        -1.998052       -54.3697
    3    2          10.0000       -12.098182      -329.2083
    4    2           9.0000        -0.243389        -6.6230


  Species: Se

  List of occupied orbitals and eigenvalues:
    n    l              occ      energy [Ha]    energy [eV]
    1    0           2.0000      -466.337810    -12689.6975
    2    0           2.0000       -59.202598     -1610.9847
    3    0           2.0000        -7.847116      -213.5309
    4    0           2.0000        -0.634372       -17.2621
    2    1           6.0000       -52.061107     -1416.6548
    3    1           6.0000        -5.620941      -152.9536
    4    1           4.0000        -0.238469        -6.4891
    3    2          10.0000        -1.951949       -53.1152

  Creating fixed part of basis set: Ionic, confined, hydrogenic.
 
  Pd                   ion:

  List of free ionic orbitals and eigenvalues:
    n    l      energy [Ha]    energy [eV]
    1    0      -914.099884    -24873.9234
    2    0      -131.248265     -3571.4470
    3    0       -24.332473      -662.1203
    4    0        -4.059276      -110.4585
    2    1      -117.724296     -3203.4411
    3    1       -19.913908      -541.8850
    4    1        -2.795328       -76.0648
    3    2       -12.908733      -351.2645
    4    2        -1.004248       -27.3270


  List of ionic basis orbitals and eigenvalues:
    n    l      energy [Ha]    energy [eV]    outer radius [A]
    5    1        -0.516938       -14.0666       5.427025

 
  Pd                   hydrogenic:
 
  List of hydrogenic basis orbitals: 
    n    l      effective z      eigenvalue [eV]  inner max. [A]     outer max. [A]     outer radius [A]   
    4    3         8.000000       -54.4226           1.054686           1.054686           4.629581
    5    4        10.000000       -54.4226           1.330451           1.330451           5.043202
    3    0         2.600000        -9.8948           0.150992           2.606197           5.493778
    3    2         2.500000        -9.3396           1.873517           1.873517           5.493778
 
 
  Se                   ion:

  List of free ionic orbitals and eigenvalues:
    n    l      energy [Ha]    energy [eV]
    1    0      -467.261007    -12714.8189
    2    0       -60.104893     -1635.5374
    3    0        -8.743714      -237.9286
    4    0        -1.414053       -38.4783
    2    1       -52.964156     -1441.2280
    3    1        -6.516916      -177.3343
    4    1        -0.961869       -26.1738
    3    2        -2.844511       -77.4031


  List of ionic basis orbitals and eigenvalues:
    n    l      energy [Ha]    energy [eV]    outer radius [A]
    4    0        -1.414046       -38.4782       4.083166

 
  Se                   hydrogenic:
 
  List of hydrogenic basis orbitals: 
    n    l      effective z      eigenvalue [eV]  inner max. [A]     outer max. [A]     outer radius [A]   
    3    2         4.300000       -27.9518           1.103845           1.103845           5.278265
    2    1         1.600000        -8.6828           1.326010           1.326010           5.475439
    4    3         7.200000       -44.0822           1.173422           1.173422           4.965294
 

  Adding cutoff potential to free-atom effective potential.
  Creating atomic-like basis functions for current effective potential.

  Species Pd                  :

  List of atomic basis orbitals and eigenvalues:
    n    l      energy [Ha]    energy [eV]    outer radius [A]
    1    0      -913.269104    -24851.3168       0.223280
    2    0      -130.434372     -3549.2998       0.615909
    3    0       -23.521804      -640.0609       1.414312
    4    0        -3.256918       -88.6253       3.581357
    5    0        -0.157260        -4.2793       5.427025
    2    1      -116.910756     -3181.3035       0.631154
    3    1       -19.103344      -519.8284       1.540671
    4    1        -1.998052       -54.3697       4.408641
    3    2       -12.098182      -329.2083       1.806051
    4    2        -0.243389        -6.6230       5.361084


  Species Se                  :

  List of atomic basis orbitals and eigenvalues:
    n    l      energy [Ha]    energy [eV]    outer radius [A]
    1    0      -466.337810    -12689.6975       0.309561
    2    0       -59.202598     -1610.9847       0.885812
    3    0        -7.847116      -213.5309       2.355489
    4    0        -0.634372       -17.2621       5.214131
    2    1       -52.061107     -1416.6548       0.907737
    3    1        -5.620941      -152.9536       2.694529
    4    1        -0.238469        -6.4891       5.408909
    3    2        -1.951949       -53.1152       4.083166

  Assembling full basis from fixed parts.
  | Species Pd :   atomic orbital   1 s accepted.
  | Species Pd :   atomic orbital   2 s accepted.
  | Species Pd :   atomic orbital   3 s accepted.
  | Species Pd :   atomic orbital   4 s accepted.
  | Species Pd :   atomic orbital   5 s accepted.
  | Species Pd :    hydro orbital   3 s accepted.
  | Species Pd :   atomic orbital   2 p accepted.
  | Species Pd :   atomic orbital   3 p accepted.
  | Species Pd :   atomic orbital   4 p accepted.
  | Species Pd :    ionic orbital   5 p accepted.
  | Species Pd :   atomic orbital   3 d accepted.
  | Species Pd :   atomic orbital   4 d accepted.
  | Species Pd :    hydro orbital   3 d accepted.
  | Species Pd :    hydro orbital   4 f accepted.
  | Species Pd :    hydro orbital   5 g accepted.
  | Species Se :   atomic orbital   1 s accepted.
  | Species Se :   atomic orbital   2 s accepted.
  | Species Se :   atomic orbital   3 s accepted.
  | Species Se :    ionic orbital   4 s accepted.
  | Species Se :   atomic orbital   4 s accepted.
  | Species Se :   atomic orbital   2 p accepted.
  | Species Se :   atomic orbital   3 p accepted.
  | Species Se :   atomic orbital   4 p accepted.
  | Species Se :    hydro orbital   2 p accepted.
  | Species Se :   atomic orbital   3 d accepted.
  | Species Se :    hydro orbital   3 d accepted.
  | Species Se :    hydro orbital   4 f accepted.
 
  Basis size parameters after reduction:
  | Total number of radial functions:       27
  | Total number of basis functions :      468
 
  Per-task memory consumption for arrays in subroutine allocate_ext:
  |           9.993344MB.
  Testing on-site integration grid accuracy.
  |  Species  Function  <phi|h_atom|phi> (log., in eV)  <phi|h_atom|phi> (rad., in eV)
           1        1             -24851.3167505682             -24851.3148165635
           1        2              -3549.2998457785              -3549.2998098031
           1        3               -640.0608571327               -640.0608534886
           1        4                -88.6252603131                -88.6252593316
           1        5                 -4.2849374515                 -4.2849400622
           1        6                  4.9432123540                  4.9432188418
           1        7              -3181.3035399559              -3181.3035364574
           1        8               -519.8284281886               -519.8284264063
           1        9                -54.3697495804                -54.3697489261
           1       10                  0.8628369484                  0.8628370487
           1       11               -329.2082917394               -329.2082912864
           1       12                 -6.6230267036                 -6.6230265076
           1       13                  5.4924295291                  5.4924115607
           1       14                 25.0740861942                 25.0740861175
           1       15                 38.8271273823                 38.8271278029
           2       16             -12689.6974611609             -12689.6967666984
           2       17              -1610.9846578580              -1610.9846472470
           2       18               -213.5308789869               -213.5308777267
           2       19                -17.0464428502                -17.0464426496
           2       20                  6.7356859379                  6.7356842047
           2       21              -1416.6548010133              -1416.6548002108
           2       22               -152.9535734377               -152.9535727493
           2       23                 -6.4896265677                 -6.4896303794
           2       24                  5.2703037283                  5.2701679583
           2       25                -53.1152220964                -53.1152219035
           2       26                  7.6186674138                  7.6186665630
           2       27                 23.1072799052                 23.1072803137

  Preparing densities etc. for the partition functions (integrals / Hartree potential).

  Preparations completed.
  max(cpu_time)          :      0.551 s.
  Wall clock time (cpu1) :      0.597 s.
------------------------------------------------------------

------------------------------------------------------------
          Begin self-consistency loop: Initialization.

          Date     :  20200420, Time     :  113455.718
------------------------------------------------------------

  Initializing index lists of integration centers etc. from given atomic structure:
  Mapping all atomic coordinates to central unit cell.

  Initializing the k-points
  Using symmetry for reducing the k-points
  | k-points reduced from:      100 to       51
  | Number of k-points                             :        51
  The eigenvectors in the calculations are COMPLEX.
  | K-points in task   0:         2
  | K-points in task   1:         3
  | K-points in task   2:         3
  | K-points in task   3:         3
  | K-points in task   4:         2
  | K-points in task   5:         2
  | K-points in task   6:         2
  | K-points in task   7:         2
  | K-points in task   8:         2
  | K-points in task   9:         2
  | K-points in task  10:         2
  | K-points in task  11:         2
  | K-points in task  12:         2
  | K-points in task  13:         2
  | K-points in task  14:         2
  | K-points in task  15:         2
  | K-points in task  16:         2
  | K-points in task  17:         2
  | K-points in task  18:         2
  | K-points in task  19:         2
  | K-points in task  20:         2
  | K-points in task  21:         2
  | K-points in task  22:         2
  | K-points in task  23:         2
  | Number of basis functions in the Hamiltonian integrals :      5570
  | Number of basis functions in a single unit cell        :       468
  | Number of centers in hartree potential         :      1323
  | Number of centers in hartree multipole         :       769
  | Number of centers in electron density summation:       596
  | Number of centers in basis integrals           :       641
  | Number of centers in integrals                 :       237
  | Number of centers in hamiltonian               :       596
  | Consuming         68 KiB for k_phase.
  | Number of super-cells (origin) [n_cells]                     :         567
  | Number of super-cells (after PM_index) [n_cells]             :          86
  | Number of super-cells in hamiltonian [n_cells_in_hamiltonian]:          86
  | Size of matrix packed + index [n_hamiltonian_matrix_size] :     1301050

  Initializing relaxation algorithms.
  | Estimated reciprocal-space cutoff momentum G_max:         2.43251121 bohr^-1 .
  | Reciprocal lattice points for long-range Hartree potential:     426
  Partitioning the integration grid into batches with parallel hashing+maxmin method.
  | Number of batches:     4180
  | Maximal batch size:     110
  | Minimal batch size:      50
  | Average batch size:      91.899
  | Standard deviation of batch sizes:      11.284

  Integration load balanced across    24 MPI tasks.
  Work distribution over tasks is as follows:
  Task     0 has      16018 integration points.
  Task     1 has      16043 integration points.
  Task     2 has      15981 integration points.
  Task     3 has      16014 integration points.
  Task     4 has      15971 integration points.
  Task     5 has      16020 integration points.
  Task     6 has      15992 integration points.
  Task     7 has      16017 integration points.
  Task     8 has      16015 integration points.
  Task     9 has      16045 integration points.
  Task    10 has      15996 integration points.
  Task    11 has      15990 integration points.
  Task    12 has      16009 integration points.
  Task    13 has      16011 integration points.
  Task    14 has      16020 integration points.
  Task    15 has      16024 integration points.
  Task    16 has      16042 integration points.
  Task    17 has      16022 integration points.
  Task    18 has      15991 integration points.
  Task    19 has      15997 integration points.
  Task    20 has      15996 integration points.
  Task    21 has      15980 integration points.
  Task    22 has      15971 integration points.
  Task    23 has      15971 integration points.
  Initializing partition tables, free-atom densities, potentials, etc. across the integration grid (initialize_grid_storage).
  | initialize_grid_storage: Actual outermost partition radius vs. multipole_radius_free
  | (-- VB: in principle, multipole_radius_free should be larger, hence this output)
  | Species        1: Confinement radius =              6.000000000000000 AA, multipole_radius_free =              6.058219618167466 AA.
  | Species        1: outer_partition_radius set to              6.058219618167466 AA .
  | Species        2: Confinement radius =              6.000000000000000 AA, multipole_radius_free =              6.037996416842453 AA.
  | Species        2: outer_partition_radius set to              6.037996416842453 AA .
  | The sparse table of interatomic distances needs       2909.21 kbyte instead of      3287.05 kbyte of memory.
  | Net number of integration points:   384136
  | of which are non-zero points    :   321993
  | Numerical average free-atom electrostatic potential    :    -17.14237825 eV
  Renormalizing the initial density to the exact electron count on the 3D integration grid.
  | Initial density: Formal number of electrons (from input files) :     456.0000000000
  | Integrated number of electrons on 3D grid     :     456.0000652448
  | Charge integration error                      :       0.0000652448
  | Normalization factor for density and gradient :       0.9999998569
  Renormalizing the free-atom superposition density to the exact electron count on the 3D integration grid.
  | Formal number of electrons (from input files) :     456.0000000000
  | Integrated number of electrons on 3D grid     :     456.0000652448
  | Charge integration error                      :       0.0000652448
  | Normalization factor for density and gradient :       0.9999998569
  Obtaining max. number of non-zero basis functions in each batch (get_n_compute_maxes).
  | Maximal number of non-zero basis functions:     1020 in task     0
  | Maximal number of non-zero basis functions:     1026 in task     1
  | Maximal number of non-zero basis functions:     1024 in task     2
  | Maximal number of non-zero basis functions:     1039 in task     3
  | Maximal number of non-zero basis functions:     1042 in task     4
  | Maximal number of non-zero basis functions:     1032 in task     5
  | Maximal number of non-zero basis functions:     1016 in task     6
  | Maximal number of non-zero basis functions:     1027 in task     7
  | Maximal number of non-zero basis functions:     1022 in task     8
  | Maximal number of non-zero basis functions:     1027 in task     9
  | Maximal number of non-zero basis functions:     1009 in task    10
  | Maximal number of non-zero basis functions:     1026 in task    11
  | Maximal number of non-zero basis functions:     1021 in task    12
  | Maximal number of non-zero basis functions:     1021 in task    13
  | Maximal number of non-zero basis functions:     1040 in task    14
  | Maximal number of non-zero basis functions:     1053 in task    15
  | Maximal number of non-zero basis functions:     1005 in task    16
  | Maximal number of non-zero basis functions:     1036 in task    17
  | Maximal number of non-zero basis functions:     1029 in task    18
  | Maximal number of non-zero basis functions:     1010 in task    19
  | Maximal number of non-zero basis functions:     1028 in task    20
  | Maximal number of non-zero basis functions:     1026 in task    21
  | Maximal number of non-zero basis functions:     1026 in task    22
  | Maximal number of non-zero basis functions:     1041 in task    23
  Allocating        4.199 MB for KS_eigenvector_complex
  Integrating Hamiltonian matrix: batch-based integration.
  Time summed over all CPUs for integration: real work       64.176 s, elapsed       64.995 s
  Integrating overlap matrix.
  Time summed over all CPUs for integration: real work       46.422 s, elapsed       47.145 s
  Decreasing sparse matrix size:
  | Tolerance:  0.1000E-12
  Hamiltonian matrix
  | Array has  1123677 nonzero elements out of  1301050 elements
  | Sparsity factor is 0.136
  Overlap matrix
  | Array has  1036084 nonzero elements out of  1301050 elements
  | Sparsity factor is 0.204
  New size of hamiltonian matrix:     1123726

  Updating Kohn-Sham eigenvalues and eigenvectors using ELSI and the (modified) LAPACK eigensolver.
  Singularity check in k-point 24, task 0 (analysis for other k-points/tasks may follow below):
  Overlap matrix is not singular
  | Lowest and highest eigenvalues :  0.6153E-03,  0.7296E+01
  Finished singularity check of overlap matrix
  | Time :     0.074 s
  Starting LAPACK eigensolver
  Finished Cholesky decomposition
  | Time :     0.018 s
  Finished transformation to standard eigenproblem
  | Time :     0.020 s
  Finished solving standard eigenproblem
  | Time :     0.071 s
  Finished back-transformation of eigenvectors
  | Time :     0.008 s

  Obtaining occupation numbers and chemical potential using ELSI.
  | Chemical potential (Fermi level):    -4.53865582 eV
  Writing Kohn-Sham eigenvalues.
  K-point:       1 at    0.000000    0.000000    0.000000 (in units of recip. lattice)

  State    Occupation    Eigenvalue [Ha]    Eigenvalue [eV]
      1       2.00000        -913.279434       -24851.59783
      2       2.00000        -913.279419       -24851.59743
      3       2.00000        -913.279413       -24851.59726
      4       2.00000        -913.279311       -24851.59448
      5       2.00000        -466.350362       -12690.03902
      6       2.00000        -466.350293       -12690.03713
      7       2.00000        -466.350245       -12690.03584
      8       2.00000        -466.350242       -12690.03576
      9       2.00000        -466.350230       -12690.03542
     10       2.00000        -466.350219       -12690.03512
     11       2.00000        -466.350199       -12690.03458
     12       2.00000        -466.350168       -12690.03373
     13       2.00000        -130.445017        -3549.58953
     14       2.00000        -130.445003        -3549.58913
     15       2.00000        -130.444997        -3549.58896
     16       2.00000        -130.444893        -3549.58615
     17       2.00000        -116.921425        -3181.59386
     18       2.00000        -116.921417        -3181.59362
     19       2.00000        -116.921411        -3181.59346
     20       2.00000        -116.921404        -3181.59328
     21       2.00000        -116.921402        -3181.59322
     22       2.00000        -116.921396        -3181.59306
     23       2.00000        -116.921364        -3181.59219
     24       2.00000        -116.921349        -3181.59179
     25       2.00000        -116.921343        -3181.59162
     26       2.00000        -116.921301        -3181.59048
     27       2.00000        -116.921292        -3181.59025
     28       2.00000        -116.921240        -3181.58883
     29       2.00000         -59.215577        -1611.33785
     30       2.00000         -59.215507        -1611.33592
     31       2.00000         -59.215459        -1611.33463
     32       2.00000         -59.215456        -1611.33453
     33       2.00000         -59.215443        -1611.33418
     34       2.00000         -59.215432        -1611.33388
     35       2.00000         -59.215412        -1611.33334
     36       2.00000         -59.215380        -1611.33248
     37       2.00000         -52.074091        -1417.00812
     38       2.00000         -52.074070        -1417.00755
     39       2.00000         -52.074022        -1417.00623
     40       2.00000         -52.074020        -1417.00618
     41       2.00000         -52.073998        -1417.00559
     42       2.00000         -52.073973        -1417.00490
     43       2.00000         -52.073971        -1417.00484
     44       2.00000         -52.073958        -1417.00449
     45       2.00000         -52.073952        -1417.00434
     46       2.00000         -52.073950        -1417.00427
     47       2.00000         -52.073947        -1417.00419
     48       2.00000         -52.073947        -1417.00418
     49       2.00000         -52.073935        -1417.00386
     50       2.00000         -52.073926        -1417.00363
     51       2.00000         -52.073924        -1417.00355
     52       2.00000         -52.073904        -1417.00302
     53       2.00000         -52.073903        -1417.00299
     54       2.00000         -52.073900        -1417.00291
     55       2.00000         -52.073895        -1417.00278
     56       2.00000         -52.073887        -1417.00256
     57       2.00000         -52.073876        -1417.00226
     58       2.00000         -52.073872        -1417.00216
     59       2.00000         -52.073856        -1417.00173
     60       2.00000         -52.073825        -1417.00087
     61       2.00000         -23.533207         -640.37115
     62       2.00000         -23.533192         -640.37073
     63       2.00000         -23.533185         -640.37055
     64       2.00000         -23.533075         -640.36756
     65       2.00000         -19.114997         -520.14554
     66       2.00000         -19.114982         -520.14511
     67       2.00000         -19.114972         -520.14486
     68       2.00000         -19.114911         -520.14319
     69       2.00000         -19.114894         -520.14272
     70       2.00000         -19.114890         -520.14261
     71       2.00000         -19.114862         -520.14185
     72       2.00000         -19.114777         -520.13954
     73       2.00000         -19.114389         -520.12898
     74       2.00000         -19.114375         -520.12860
     75       2.00000         -19.114368         -520.12842
     76       2.00000         -19.114261         -520.12552
     77       2.00000         -12.109804         -329.52452
     78       2.00000         -12.109787         -329.52407
     79       2.00000         -12.109780         -329.52389
     80       2.00000         -12.109769         -329.52357
     81       2.00000         -12.109752         -329.52312
     82       2.00000         -12.109745         -329.52293
     83       2.00000         -12.109668         -329.52084
     84       2.00000         -12.109634         -329.51990
     85       2.00000         -12.109432         -329.51441
     86       2.00000         -12.109417         -329.51401
     87       2.00000         -12.109409         -329.51379
     88       2.00000         -12.109377         -329.51290
     89       2.00000         -12.109361         -329.51248
     90       2.00000         -12.109356         -329.51235
     91       2.00000         -12.109302         -329.51087
     92       2.00000         -12.109296         -329.51071
     93       2.00000         -12.109281         -329.51031
     94       2.00000         -12.109275         -329.51014
     95       2.00000         -12.109247         -329.50938
     96       2.00000         -12.109168         -329.50722
     97       2.00000          -7.861898         -213.93313
     98       2.00000          -7.861815         -213.93086
     99       2.00000          -7.861766         -213.92955
    100       2.00000          -7.861757         -213.92929
    101       2.00000          -7.861743         -213.92893
    102       2.00000          -7.861731         -213.92859
    103       2.00000          -7.861709         -213.92798
    104       2.00000          -7.861674         -213.92703
    105       2.00000          -5.636285         -153.37111
    106       2.00000          -5.636213         -153.36916
    107       2.00000          -5.636154         -153.36756
    108       2.00000          -5.636146         -153.36735
    109       2.00000          -5.636138         -153.36711
    110       2.00000          -5.636122         -153.36667
    111       2.00000          -5.636092         -153.36588
    112       2.00000          -5.636071         -153.36530
    113       2.00000          -5.636060         -153.36500
    114       2.00000          -5.635975         -153.36267
    115       2.00000          -5.635921         -153.36121
    116       2.00000          -5.635906         -153.36082
    117       2.00000          -5.635901         -153.36067
    118       2.00000          -5.635872         -153.35988
    119       2.00000          -5.635827         -153.35864
    120       2.00000          -5.635802         -153.35797
    121       2.00000          -5.635392         -153.34682
    122       2.00000          -5.635311         -153.34462
    123       2.00000          -5.635265         -153.34335
    124       2.00000          -5.635262         -153.34329
    125       2.00000          -5.635246         -153.34284
    126       2.00000          -5.635235         -153.34256
    127       2.00000          -5.635219         -153.34211
    128       2.00000          -5.635183         -153.34114
    129       2.00000          -3.273832          -89.08551
    130       2.00000          -3.273810          -89.08490
    131       2.00000          -3.273800          -89.08463
    132       2.00000          -3.273640          -89.08027
    133       2.00000          -2.020054          -54.96847
    134       2.00000          -2.020031          -54.96785
    135       2.00000          -2.019978          -54.96640
    136       2.00000          -2.019792          -54.96134
    137       2.00000          -2.019058          -54.94135
    138       2.00000          -2.019046          -54.94105
    139       2.00000          -2.019001          -54.93981
    140       2.00000          -2.018812          -54.93466
    141       2.00000          -2.013002          -54.77657
    142       2.00000          -2.012994          -54.77634
    143       2.00000          -2.012984          -54.77608
    144       2.00000          -2.012841          -54.77219
    145       2.00000          -1.969340          -53.58848
    146       2.00000          -1.969216          -53.58510
    147       2.00000          -1.969156          -53.58347
    148       2.00000          -1.969129          -53.58274
    149       2.00000          -1.968246          -53.55869
    150       2.00000          -1.968162          -53.55641
    151       2.00000          -1.968100          -53.55472
    152       2.00000          -1.968080          -53.55418
    153       2.00000          -1.967769          -53.54573
    154       2.00000          -1.967727          -53.54458
    155       2.00000          -1.967666          -53.54290
    156       2.00000          -1.967664          -53.54285
    157       2.00000          -1.967651          -53.54251
    158       2.00000          -1.967600          -53.54111
    159       2.00000          -1.967535          -53.53934
    160       2.00000          -1.967526          -53.53911
    161       2.00000          -1.967368          -53.53481
    162       2.00000          -1.967328          -53.53373
    163       2.00000          -1.967308          -53.53316
    164       2.00000          -1.967267          -53.53207
    165       2.00000          -1.967260          -53.53187
    166       2.00000          -1.967254          -53.53171
    167       2.00000          -1.967234          -53.53116
    168       2.00000          -1.967218          -53.53074
    169       2.00000          -1.967207          -53.53041
    170       2.00000          -1.967195          -53.53009
    171       2.00000          -1.967192          -53.53002
    172       2.00000          -1.967171          -53.52944
    173       2.00000          -1.967144          -53.52871
    174       2.00000          -1.967138          -53.52856
    175       2.00000          -1.967127          -53.52824
    176       2.00000          -1.967100          -53.52752
    177       2.00000          -1.966712          -53.51695
    178       2.00000          -1.966657          -53.51547
    179       2.00000          -1.966608          -53.51414
    180       2.00000          -1.966595          -53.51379
    181       2.00000          -1.966352          -53.50716
    182       2.00000          -1.966306          -53.50590
    183       2.00000          -1.966253          -53.50446
    184       2.00000          -1.966246          -53.50427
    185       2.00000          -0.759897          -20.67785
    186       2.00000          -0.740319          -20.14512
    187       2.00000          -0.720936          -19.61767
    188       2.00000          -0.719184          -19.56999
    189       2.00000          -0.652469          -17.75459
    190       2.00000          -0.640568          -17.43074
    191       2.00000          -0.639357          -17.39780
    192       2.00000          -0.627148          -17.06557
    193       2.00000          -0.418016          -11.37479
    194       2.00000          -0.410342          -11.16596
    195       2.00000          -0.390120          -10.61570
    196       2.00000          -0.375903          -10.22884
    197       2.00000          -0.371115          -10.09854
    198       2.00000          -0.369676          -10.05939
    199       2.00000          -0.366261           -9.96648
    200       2.00000          -0.365622           -9.94907
    201       2.00000          -0.363911           -9.90251
    202       2.00000          -0.362251           -9.85734
    203       2.00000          -0.361754           -9.84383
    204       2.00000          -0.351766           -9.57205
    205       2.00000          -0.342464           -9.31893
    206       2.00000          -0.331194           -9.01224
    207       2.00000          -0.325667           -8.86186
    208       2.00000          -0.317566           -8.64141
    209       2.00000          -0.316917           -8.62374
    210       2.00000          -0.305749           -8.31986
    211       2.00000          -0.288537           -7.85148
    212       2.00000          -0.286457           -7.79489
    213       2.00000          -0.285437           -7.76714
    214       2.00000          -0.279773           -7.61300
    215       2.00000          -0.279249           -7.59876
    216       2.00000          -0.277068           -7.53940
    217       2.00000          -0.275957           -7.50916
    218       2.00000          -0.275906           -7.50779
    219       2.00000          -0.273657           -7.44658
    220       2.00000          -0.270129           -7.35058
    221       2.00000          -0.265704           -7.23018
    222       2.00000          -0.264294           -7.19179
    223       2.00000          -0.263837           -7.17938
    224       2.00000          -0.258406           -7.03157
    225       2.00000          -0.223586           -6.08408
    226       2.00000          -0.214590           -5.83930
    227       2.00000          -0.212432           -5.78058
    228       0.00000          -0.162419           -4.41963
    229       0.00000          -0.152522           -4.15035
    230       0.00000          -0.134985           -3.67313
    231       0.00000          -0.129598           -3.52654
    232       0.00000          -0.127385           -3.46631
    233       0.00000          -0.124948           -3.40001
    234       0.00000          -0.115309           -3.13771
    235       0.00000          -0.114654           -3.11989
    236       0.00000          -0.082472           -2.24419
    237       0.00000          -0.037390           -1.01744
    238       0.00000          -0.029144           -0.79304
    239       0.00000          -0.000182           -0.00496
    240       0.00000           0.024304            0.66135
    241       0.00000           0.026558            0.72267
    242       0.00000           0.028367            0.77191
    243       0.00000           0.058624            1.59524
    244       0.00000           0.089924            2.44694
    245       0.00000           0.100635            2.73842
    246       0.00000           0.111424            3.03199
    247       0.00000           0.118231            3.21723
    248       0.00000           0.123350            3.35651
    249       0.00000           0.124177            3.37902
    250       0.00000           0.124982            3.40092
    251       0.00000           0.138345            3.76456
    252       0.00000           0.152288            4.14395
    253       0.00000           0.158959            4.32550
    254       0.00000           0.169520            4.61286
    255       0.00000           0.176626            4.80623
    256       0.00000           0.189209            5.14865
    257       0.00000           0.192693            5.24345
    258       0.00000           0.200372            5.45240
    259       0.00000           0.221158            6.01802
    260       0.00000           0.230450            6.27085
    261       0.00000           0.247359            6.73098
    262       0.00000           0.257616            7.01008
    263       0.00000           0.267621            7.28235
    264       0.00000           0.279817            7.61422
    265       0.00000           0.280763            7.63994
[...]
  Pulay mixing of updated and previous charge densities.
  Renormalizing the density to the exact electron count on the 3D integration grid.
  | Formal number of electrons (from input files) :     456.0000000000
  | Integrated number of electrons on 3D grid     :     456.0000010469
  | Charge integration error                      :       0.0000010469
  | Normalization factor for density and gradient :       0.9999999977

  Evaluating partitioned Hartree potential by multipole expansion.
  | Original multipole sum: apparent total charge =   0.489172E-12
  | Sum of charges compensated after spline to logarithmic grids =   0.746231E-07
  | Analytical far-field extrapolation by fixed multipoles:
  | Hartree multipole sum: apparent total charge =   0.489068E-12
  Summing up the Hartree potential.
  Time summed over all CPUs for potential: real work       40.157 s, elapsed       41.592 s
  | RMS charge density error from multipole expansion :   0.753995E-02
  | Average real-space part of the electrostatic potential :     -0.01303314 eV

  Integrating Hamiltonian matrix: batch-based integration.
  Time summed over all CPUs for integration: real work       63.281 s, elapsed       64.144 s

  Updating Kohn-Sham eigenvalues and eigenvectors using ELSI and the (modified) LAPACK eigensolver.
  Starting LAPACK eigensolver
  Finished Cholesky decomposition
  | Time :     0.011 s
  Finished transformation to standard eigenproblem
  | Time :     0.020 s
  Finished solving standard eigenproblem
  | Time :     0.071 s
  Finished back-transformation of eigenvectors
  | Time :     0.009 s

  Obtaining occupation numbers and chemical potential using ELSI.
  | Chemical potential (Fermi level):    -4.79034543 eV
  What follows are estimated values for band gap, HOMO, LUMO, etc.
  | They are estimated on a discrete k-point grid and not necessarily exact.
  | For converged numbers, create a DOS and/or band structure plot on a denser k-grid.

  Highest occupied state (VBM) at     -4.79307670 eV (relative to internal zero)
  | Occupation number:      1.06157692
  | K-point:      38 at    0.400000    0.600000    0.750000 (in units of recip. lattice)

  Lowest unoccupied state (CBM) at    -4.72904443 eV (relative to internal zero)
  | Occupation number:      0.08294398
  | K-point:      33 at    0.400000    0.400000    0.000000 (in units of recip. lattice)

  ESTIMATED overall HOMO-LUMO gap:      0.06403227 eV between HOMO at k-point 38 and LUMO at k-point 33
  | This appears to be an indirect band gap.
  | Smallest direct gap :      0.17185636 eV for k_point 37 at    0.400000    0.400000    0.000000 (in units of recip. lattice)
  However, this system has fractional occupation numbers. Since we use a finite k-point grid,
  this material is metallic within the approximate finite broadening function (occupation_type)
  applied to determine the occupation numbers.

  Total energy components:
  | Sum of eigenvalues            :      -23864.32413264 Ha     -649381.29980594 eV
  | XC energy correction          :       -1284.32998853 Ha      -34948.39714282 eV
  | XC potential correction       :        1672.90678040 Ha       45522.10963421 eV
  | Free-atom electrostatic energy:      -16511.33359642 Ha     -449296.24709995 eV
  | Hartree energy correction     :           7.17676461 Ha         195.28970114 eV
  | vdW energy correction         :           0.00000000 Ha           0.00000000 eV
  | Entropy correction            :          -0.00005793 Ha          -0.00157644 eV
  | ---------------------------
  | Total energy                  :      -39979.90417258 Ha    -1087908.54471335 eV
  | Total energy, T -> 0          :      -39979.90423052 Ha    -1087908.54628979 eV  <-- do not rely on this value for anything but (periodic) metals
  | Electronic free energy        :      -39979.90428845 Ha    -1087908.54786623 eV

  Derived energy quantities:
  | Kinetic energy                :       41145.65451495 Ha     1119630.22551050 eV
  | Electrostatic energy          :      -79841.22869900 Ha    -2172590.37308103 eV
  | Energy correction for multipole
  | error in Hartree potential    :          -0.00451131 Ha          -0.12275897 eV
  | Sum of eigenvalues per atom                           :      -54115.10831716 eV
  | Total energy (T->0) per atom                          :      -90659.04552415 eV  <-- do not rely on this value for anything but (periodic) metals
  | Electronic free energy per atom                       :      -90659.04565552 eV

  Self-consistency convergence accuracy:
  | Change of charge density      :  0.1039E-03
  | Change of sum of eigenvalues  : -0.9526E-02 eV
  | Change of total energy        :  0.9444E-07 eV

  End self-consistency iteration #    15       :  max(cpu_time)    wall_clock(cpu1)
  | Time for this iteration                    :       10.958 s          10.958 s
  | Charge density update                      :        5.296 s           5.296 s
  | Density mixing & preconditioning           :        0.780 s           0.779 s
  | Hartree multipole update                   :        0.004 s           0.005 s
  | Hartree multipole summation                :        1.753 s           1.752 s
  | Integration                                :        2.700 s           2.700 s
  | Solution of K.-S. eqns.                    :        0.424 s           0.424 s
  | Total energy evaluation                    :        0.000 s           0.001 s

  Partial memory accounting:
  | Current value for overall tracked memory usage:
  |   Minimum:       25.719 MB (on task  0)
  |   Maximum:       27.818 MB (on task  1)
  |   Average:       25.981 MB
  | Peak value for overall tracked memory usage:
  |   Minimum:       39.359 MB (on task 16 after allocating wave)
  |   Maximum:       42.075 MB (on task  3 after allocating wave)
  |   Average:       40.018 MB
  | Largest tracked array allocation so far:
  |   Minimum:        9.926 MB (overlap_matrix on task  0)
  |   Maximum:        9.926 MB (overlap_matrix on task  0)
  |   Average:        9.926 MB
  Note:  These values currently only include a subset of arrays which are explicitly tracked.
  The "true" memory usage will be greater.
------------------------------------------------------------

------------------------------------------------------------
          Begin self-consistency iteration #   16

  Date     :  20200420, Time     :  113747.055
------------------------------------------------------------
  Evaluating new KS density using the density matrix
  Evaluating density matrix
  Time summed over all CPUs for getting density from density matrix: real work      122.842 s, elapsed      125.183 s
  Integration grid: deviation in total charge (<rho> - N_e) =  -8.554935E-11
  Pulay mixing of updated and previous charge densities.
  Renormalizing the density to the exact electron count on the 3D integration grid.
  | Formal number of electrons (from input files) :     456.0000000000
  | Integrated number of electrons on 3D grid     :     455.9999889415
  | Charge integration error                      :      -0.0000110585
  | Normalization factor for density and gradient :       1.0000000243

  Evaluating partitioned Hartree potential by multipole expansion.
  | Original multipole sum: apparent total charge =  -0.220230E-12
  | Sum of charges compensated after spline to logarithmic grids =   0.756222E-07
  | Analytical far-field extrapolation by fixed multipoles:
  | Hartree multipole sum: apparent total charge =  -0.220423E-12
  Summing up the Hartree potential.
  Time summed over all CPUs for potential: real work       40.157 s, elapsed       41.647 s
  | RMS charge density error from multipole expansion :   0.753938E-02
  | Average real-space part of the electrostatic potential :     -0.01302043 eV

  Integrating Hamiltonian matrix: batch-based integration.
  Time summed over all CPUs for integration: real work       63.296 s, elapsed       64.171 s

  Updating Kohn-Sham eigenvalues and eigenvectors using ELSI and the (modified) LAPACK eigensolver.
  Starting LAPACK eigensolver
  Finished Cholesky decomposition
  | Time :     0.011 s
  Finished transformation to standard eigenproblem
  | Time :     0.020 s
  Finished solving standard eigenproblem
  | Time :     0.071 s
  Finished back-transformation of eigenvectors
  | Time :     0.009 s

  Obtaining occupation numbers and chemical potential using ELSI.
  | Chemical potential (Fermi level):    -4.79030827 eV
  What follows are estimated values for band gap, HOMO, LUMO, etc.
  | They are estimated on a discrete k-point grid and not necessarily exact.
  | For converged numbers, create a DOS and/or band structure plot on a denser k-grid.

  Highest occupied state (VBM) at     -4.79305228 eV (relative to internal zero)
  | Occupation number:      1.06186369
  | K-point:      38 at    0.400000    0.600000    0.750000 (in units of recip. lattice)

  Lowest unoccupied state (CBM) at    -4.72900960 eV (relative to internal zero)
  | Occupation number:      0.08295566
  | K-point:      33 at    0.400000    0.400000    0.000000 (in units of recip. lattice)

  ESTIMATED overall HOMO-LUMO gap:      0.06404269 eV between HOMO at k-point 38 and LUMO at k-point 33
  | This appears to be an indirect band gap.
  | Smallest direct gap :      0.17180982 eV for k_point 37 at    0.400000    0.400000    0.000000 (in units of recip. lattice)
  However, this system has fractional occupation numbers. Since we use a finite k-point grid,
  this material is metallic within the approximate finite broadening function (occupation_type)
  applied to determine the occupation numbers.

  Total energy components:
  | Sum of eigenvalues            :      -23864.32311355 Ha     -649381.27207502 eV
  | XC energy correction          :       -1284.33003287 Ha      -34948.39834940 eV
  | XC potential correction       :        1672.90683980 Ha       45522.11125041 eV
  | Free-atom electrostatic energy:      -16511.33359642 Ha     -449296.24709995 eV
  | Hartree energy correction     :           7.17573049 Ha         195.26156135 eV
  | vdW energy correction         :           0.00000000 Ha           0.00000000 eV
  | Entropy correction            :          -0.00005794 Ha          -0.00157658 eV
  | ---------------------------
  | Total energy                  :      -39979.90417256 Ha    -1087908.54471261 eV
  | Total energy, T -> 0          :      -39979.90423050 Ha    -1087908.54628919 eV  <-- do not rely on this value for anything but (periodic) metals
  | Electronic free energy        :      -39979.90428843 Ha    -1087908.54786577 eV

  Derived energy quantities:
  | Kinetic energy                :       41145.65635410 Ha     1119630.27555621 eV
  | Electrostatic energy          :      -79841.23049378 Ha    -2172590.42191942 eV
  | Energy correction for multipole
  | error in Hartree potential    :          -0.00451078 Ha          -0.12274466 eV
  | Sum of eigenvalues per atom                           :      -54115.10600625 eV
  | Total energy (T->0) per atom                          :      -90659.04552410 eV  <-- do not rely on this value for anything but (periodic) metals
  | Electronic free energy per atom                       :      -90659.04565548 eV

  Self-consistency convergence accuracy:
  | Change of charge density      :  0.9349E-04
  | Change of sum of eigenvalues  :  0.2773E-01 eV
  | Change of total energy        :  0.7407E-06 eV

  End self-consistency iteration #    16       :  max(cpu_time)    wall_clock(cpu1)
  | Time for this iteration                    :       10.967 s          10.967 s
  | Charge density update                      :        5.300 s           5.300 s
  | Density mixing & preconditioning           :        0.779 s           0.780 s
  | Hartree multipole update                   :        0.004 s           0.004 s
  | Hartree multipole summation                :        1.755 s           1.755 s
  | Integration                                :        2.701 s           2.701 s
  | Solution of K.-S. eqns.                    :        0.426 s           0.426 s
  | Total energy evaluation                    :        0.001 s           0.000 s

  Partial memory accounting:
  | Current value for overall tracked memory usage:
  |   Minimum:       25.719 MB (on task  0)
  |   Maximum:       27.818 MB (on task  1)
  |   Average:       25.981 MB
  | Peak value for overall tracked memory usage:
  |   Minimum:       39.359 MB (on task 16 after allocating wave)
  |   Maximum:       42.075 MB (on task  3 after allocating wave)
  |   Average:       40.018 MB
  | Largest tracked array allocation so far:
  |   Minimum:        9.926 MB (overlap_matrix on task  0)
  |   Maximum:        9.926 MB (overlap_matrix on task  0)
  |   Average:        9.926 MB
  Note:  These values currently only include a subset of arrays which are explicitly tracked.
  The "true" memory usage will be greater.
------------------------------------------------------------

------------------------------------------------------------
          Begin self-consistency iteration #   17

  Date     :  20200420, Time     :  113758.023
------------------------------------------------------------
  Evaluating new KS density using the density matrix
  Evaluating density matrix
  Time summed over all CPUs for getting density from density matrix: real work      122.791 s, elapsed      124.792 s
  Integration grid: deviation in total charge (<rho> - N_e) =  -8.549250E-11
  Pulay mixing of updated and previous charge densities.
  Renormalizing the density to the exact electron count on the 3D integration grid.
  | Formal number of electrons (from input files) :     456.0000000000
  | Integrated number of electrons on 3D grid     :     456.0000006752
  | Charge integration error                      :       0.0000006752
  | Normalization factor for density and gradient :       0.9999999985

  Evaluating partitioned Hartree potential by multipole expansion.
  | Original multipole sum: apparent total charge =   0.147740E-13
  | Sum of charges compensated after spline to logarithmic grids =   0.759575E-07
  | Analytical far-field extrapolation by fixed multipoles:
  | Hartree multipole sum: apparent total charge =   0.145188E-13
  Summing up the Hartree potential.
  Time summed over all CPUs for potential: real work       40.075 s, elapsed       40.543 s
  | RMS charge density error from multipole expansion :   0.753890E-02
  | Average real-space part of the electrostatic potential :     -0.01301560 eV

  Integrating Hamiltonian matrix: batch-based integration.
  Time summed over all CPUs for integration: real work       63.290 s, elapsed       64.145 s

  Updating Kohn-Sham eigenvalues and eigenvectors using ELSI and the (modified) LAPACK eigensolver.
  Starting LAPACK eigensolver
  Finished Cholesky decomposition
  | Time :     0.011 s
  Finished transformation to standard eigenproblem
  | Time :     0.020 s
  Finished solving standard eigenproblem
  | Time :     0.071 s
  Finished back-transformation of eigenvectors
  | Time :     0.009 s

  Obtaining occupation numbers and chemical potential using ELSI.
  | Chemical potential (Fermi level):    -4.79032164 eV
  What follows are estimated values for band gap, HOMO, LUMO, etc.
  | They are estimated on a discrete k-point grid and not necessarily exact.
  | For converged numbers, create a DOS and/or band structure plot on a denser k-grid.

  Highest occupied state (VBM) at     -4.79307092 eV (relative to internal zero)
  | Occupation number:      1.06198205
  | K-point:      38 at    0.400000    0.600000    0.750000 (in units of recip. lattice)

  Lowest unoccupied state (CBM) at    -4.72902465 eV (relative to internal zero)
  | Occupation number:      0.08296408
  | K-point:      33 at    0.400000    0.400000    0.000000 (in units of recip. lattice)

  ESTIMATED overall HOMO-LUMO gap:      0.06404627 eV between HOMO at k-point 38 and LUMO at k-point 33
  | This appears to be an indirect band gap.
  | Smallest direct gap :      0.17181181 eV for k_point 37 at    0.400000    0.400000    0.000000 (in units of recip. lattice)
  However, this system has fractional occupation numbers. Since we use a finite k-point grid,
  this material is metallic within the approximate finite broadening function (occupation_type)
  applied to determine the occupation numbers.

  Total energy components:
  | Sum of eigenvalues            :      -23864.32361438 Ha     -649381.28570322 eV
  | XC energy correction          :       -1284.33000535 Ha      -34948.39760048 eV
  | XC potential correction       :        1672.90680526 Ha       45522.11031059 eV
  | Free-atom electrostatic energy:      -16511.33359642 Ha     -449296.24709995 eV
  | Hartree energy correction     :           7.17623831 Ha         195.27537997 eV
  | vdW energy correction         :           0.00000000 Ha           0.00000000 eV
  | Entropy correction            :          -0.00005793 Ha          -0.00157647 eV
  | ---------------------------
  | Total energy                  :      -39979.90417257 Ha    -1087908.54471309 eV
  | Total energy, T -> 0          :      -39979.90423051 Ha    -1087908.54628956 eV  <-- do not rely on this value for anything but (periodic) metals
  | Electronic free energy        :      -39979.90428844 Ha    -1087908.54786604 eV

  Derived energy quantities:
  | Kinetic energy                :       41145.65560016 Ha     1119630.25504043 eV
  | Electrostatic energy          :      -79841.22976738 Ha    -2172590.40215303 eV
  | Energy correction for multipole
  | error in Hartree potential    :          -0.00451050 Ha          -0.12273693 eV
  | Sum of eigenvalues per atom                           :      -54115.10714193 eV
  | Total energy (T->0) per atom                          :      -90659.04552413 eV  <-- do not rely on this value for anything but (periodic) metals
  | Electronic free energy per atom                       :      -90659.04565550 eV

  Self-consistency convergence accuracy:
  | Change of charge density      :  0.7063E-04
  | Change of sum of eigenvalues  : -0.1363E-01 eV
  | Change of total energy        : -0.4825E-06 eV

  End self-consistency iteration #    17       :  max(cpu_time)    wall_clock(cpu1)
  | Time for this iteration                    :       10.904 s          10.904 s
  | Charge density update                      :        5.284 s           5.284 s
  | Density mixing & preconditioning           :        0.780 s           0.779 s
  | Hartree multipole update                   :        0.004 s           0.005 s
  | Hartree multipole summation                :        1.709 s           1.708 s
  | Integration                                :        2.700 s           2.701 s
  | Solution of K.-S. eqns.                    :        0.426 s           0.426 s
  | Total energy evaluation                    :        0.001 s           0.001 s

  Partial memory accounting:
  | Current value for overall tracked memory usage:
  |   Minimum:       25.719 MB (on task  0)
  |   Maximum:       27.818 MB (on task  1)
  |   Average:       25.981 MB
  | Peak value for overall tracked memory usage:
  |   Minimum:       39.359 MB (on task 16 after allocating wave)
  |   Maximum:       42.075 MB (on task  3 after allocating wave)
  |   Average:       40.018 MB
  | Largest tracked array allocation so far:
  |   Minimum:        9.926 MB (overlap_matrix on task  0)
  |   Maximum:        9.926 MB (overlap_matrix on task  0)
  |   Average:        9.926 MB
  Note:  These values currently only include a subset of arrays which are explicitly tracked.
  The "true" memory usage will be greater.
------------------------------------------------------------

------------------------------------------------------------
          Begin self-consistency iteration #   18

  Date     :  20200420, Time     :  113808.930
------------------------------------------------------------
  Evaluating new KS density using the density matrix
  Evaluating density matrix
