------------------------------------------------------------
          Invoking FHI-aims ...

          When using FHI-aims, please cite the following reference:

          Volker Blum, Ralf Gehrke, Felix Hanke, Paula Havu,
          Ville Havu, Xinguo Ren, Karsten Reuter, and Matthias Scheffler,
          'Ab Initio Molecular Simulations with Numeric Atom-Centered Orbitals',
          Computer Physics Communications 180, 2175-2196 (2009)

          For any questions about FHI-aims, please visit the aimsclub website
          with its forums and wiki. Contributions to both the forums and the
          wiki are warmly encouraged - they are for you, and everyone is welcome there.

------------------------------------------------------------



  Date     :  20200403, Time     :  081303.348
  Time zero on CPU 1             :   0.109991000000000E+00  s.
  Internal wall clock time zero  :           355133583.348  s.

  FHI-aims created a unique identifier for this run for later identification
  aims_uuid : C32D5642-6941-4F06-A742-796AC8FA000F

  Build configuration of the current instance of FHI-aims
  -------------------------------------------------------
  FHI-aims version      : 200112
  Commit number         : 23daeca3f
  CMake host system     : Linux-3.10.0-693.21.1.el7.x86_64
  CMake version         : 3.13.3
  Fortran compiler      : /sw/installed/impi/2018.4.274-iccifort-2019.1.144-GCC-8.2.0-2.31.1/bin64/mpiifort (Intel) version 19.0.0.20181018
  Fortran compiler flags: -O3 -ip -fp-model precise
  C compiler            : /sw/installed/impi/2018.4.274-iccifort-2019.1.144-GCC-8.2.0-2.31.1/bin64/mpiicc (Intel) version 19.0.0.20181018
  C compiler flags      : -O3 -ip -fp-model precise
  Architecture          :
  Using MPI
  Using Scalapack
  Using C files
  Using LibXC
  Using SPGlib
  Using i-PI
  Using RLSY
  Linking against: /sw/installed/imkl/2019.1.144-iimpi-2019a/mkl/lib/intel64/libmkl_intel_lp64.so
                   /sw/installed/imkl/2019.1.144-iimpi-2019a/mkl/lib/intel64/libmkl_sequential.so
                   /sw/installed/imkl/2019.1.144-iimpi-2019a/mkl/lib/intel64/libmkl_core.so
                   /sw/installed/imkl/2019.1.144-iimpi-2019a/mkl/lib/intel64/libmkl_blacs_intelmpi_lp64.so
                   /sw/installed/imkl/2019.1.144-iimpi-2019a/mkl/lib/intel64/libmkl_scalapack_lp64.so

  Using       24 parallel tasks.
  Task        0 on host taurusi6046.taurus.hrsk.tu-dresden.de reporting.
  Task        1 on host taurusi6046.taurus.hrsk.tu-dresden.de reporting.
  Task        2 on host taurusi6046.taurus.hrsk.tu-dresden.de reporting.
  Task        3 on host taurusi6046.taurus.hrsk.tu-dresden.de reporting.
  Task        4 on host taurusi6046.taurus.hrsk.tu-dresden.de reporting.
  Task        5 on host taurusi6046.taurus.hrsk.tu-dresden.de reporting.
  Task        6 on host taurusi6046.taurus.hrsk.tu-dresden.de reporting.
  Task        7 on host taurusi6046.taurus.hrsk.tu-dresden.de reporting.
  Task        8 on host taurusi6046.taurus.hrsk.tu-dresden.de reporting.
  Task        9 on host taurusi6046.taurus.hrsk.tu-dresden.de reporting.
  Task       10 on host taurusi6046.taurus.hrsk.tu-dresden.de reporting.
  Task       11 on host taurusi6046.taurus.hrsk.tu-dresden.de reporting.
  Task       12 on host taurusi6046.taurus.hrsk.tu-dresden.de reporting.
  Task       13 on host taurusi6046.taurus.hrsk.tu-dresden.de reporting.
  Task       14 on host taurusi6046.taurus.hrsk.tu-dresden.de reporting.
  Task       15 on host taurusi6046.taurus.hrsk.tu-dresden.de reporting.
  Task       16 on host taurusi6046.taurus.hrsk.tu-dresden.de reporting.
  Task       17 on host taurusi6046.taurus.hrsk.tu-dresden.de reporting.
  Task       18 on host taurusi6046.taurus.hrsk.tu-dresden.de reporting.
  Task       19 on host taurusi6046.taurus.hrsk.tu-dresden.de reporting.
  Task       20 on host taurusi6046.taurus.hrsk.tu-dresden.de reporting.
  Task       21 on host taurusi6046.taurus.hrsk.tu-dresden.de reporting.
  Task       22 on host taurusi6046.taurus.hrsk.tu-dresden.de reporting.
  Task       23 on host taurusi6046.taurus.hrsk.tu-dresden.de reporting.

  Performing system and environment tests:
  | Environment variable OMP_NUM_THREADS correctly set to 1.
  | Maximum stacksize for task 0: unlimited
  | Maximum stacksize for task 1: unlimited
  | Maximum stacksize for task 2: unlimited
  | Maximum stacksize for task 3: unlimited
  | Maximum stacksize for task 4: unlimited
  | Maximum stacksize for task 5: unlimited
  | Maximum stacksize for task 6: unlimited
  | Maximum stacksize for task 7: unlimited
  | Maximum stacksize for task 8: unlimited
  | Maximum stacksize for task 9: unlimited
  | Maximum stacksize for task 10: unlimited
  | Maximum stacksize for task 11: unlimited
  | Maximum stacksize for task 12: unlimited
  | Maximum stacksize for task 13: unlimited
  | Maximum stacksize for task 14: unlimited
  | Maximum stacksize for task 15: unlimited
  | Maximum stacksize for task 16: unlimited
  | Maximum stacksize for task 17: unlimited
  | Maximum stacksize for task 18: unlimited
  | Maximum stacksize for task 19: unlimited
  | Maximum stacksize for task 20: unlimited
  | Maximum stacksize for task 21: unlimited
  | Maximum stacksize for task 22: unlimited
  | Maximum stacksize for task 23: unlimited
  | Current stacksize for task 0: unlimited
  | Current stacksize for task 1: unlimited
  | Current stacksize for task 2: unlimited
  | Current stacksize for task 3: unlimited
  | Current stacksize for task 4: unlimited
  | Current stacksize for task 5: unlimited
  | Current stacksize for task 6: unlimited
  | Current stacksize for task 7: unlimited
  | Current stacksize for task 8: unlimited
  | Current stacksize for task 9: unlimited
  | Current stacksize for task 10: unlimited
  | Current stacksize for task 11: unlimited
  | Current stacksize for task 12: unlimited
  | Current stacksize for task 13: unlimited
  | Current stacksize for task 14: unlimited
  | Current stacksize for task 15: unlimited
  | Current stacksize for task 16: unlimited
  | Current stacksize for task 17: unlimited
  | Current stacksize for task 18: unlimited
  | Current stacksize for task 19: unlimited
  | Current stacksize for task 20: unlimited
  | Current stacksize for task 21: unlimited
  | Current stacksize for task 22: unlimited
  | Current stacksize for task 23: unlimited
  | Checking for scalapack...
  | Testing pdtran()...
  | All pdtran() tests passed.

  Obtaining array dimensions for all initial allocations:
  
  -----------------------------------------------------------------------
  Parsing control.in (first pass over file, find array dimensions only).
  The contents of control.in will be repeated verbatim below
  unless switched off by setting 'verbatim_writeout .false.' .
  in the first line of control.in .
  -----------------------------------------------------------------------
  
  #===============================================================================
  # FHI-aims file: ./control.in
  # Created using the Atomic Simulation Environment (ASE)
  # Thu Apr  2 11:31:19 2020
  #===============================================================================
  xc                                 pbe
  # include_spin_orbit
  # vdw_correction_hirshfeld
  many_body_dispersion_nl 	 beta=0.81
  spin                               none
  k_grid 	 	 6 6 1
  relativistic                       atomic_zora scalar
  ### SCF settings
  adjust_scf 	 always 	 3
  # frozen_core_scf 	 .true.
  # charge_mix_param  0.05
  # occupation_type 	 gaussian 	 0.01
  # sc_accuracy_eev   1E-3 	 	 # sum of eigenvalues convergence
  # sc_accuracy_etot  1E-6 	 	 # total energy convergence
  # sc_accuracy_rho   1E-3 	 	 # electron density convergence
  # elsi_restart 	 read_and_write 	 1000
  ### geometry optimisation section
  relax_geometry 	 bfgs 	 1E-2
  relax_unit_cell 	 full
  #===============================================================================
  
  ################################################################################
  #
  #  FHI-aims code project
  # Volker Blum, Fritz Haber Institute Berlin, 2009
  #
  #  Suggested "tight" defaults for Se atom (to be pasted into control.in file)
  #
  ################################################################################
    species        Se
  #     global species definitions
      nucleus             34
      mass                78.96
  #
      l_hartree           6
  #
      cut_pot             4.0          2.0  1.0
      basis_dep_cutoff    1e-4
  #
      radial_base         55 7.0
      radial_multiplier   2
      angular_grids       specified
        division   0.0830  110
        division   0.1357  194
        division   0.7377  302
        division   0.8610  434
  #      division   0.9640  590
  #      division   1.0773  770
  #      division   2.5539  974
  #      outer_grid  974
        outer_grid  434
  ################################################################################
  #
  #  Definition of "minimal" basis
  #
  ################################################################################
  #     valence basis states
      valence      4  s   2.
      valence      4  p   4.
      valence      3  d  10.
  #     ion occupancy
      ion_occ      4  s   1.
      ion_occ      4  p   3.
      ion_occ      3  d  10.
  ################################################################################
  #
  #  Suggested additional basis functions. For production calculations,
  #  uncomment them one after another (the most important basis functions are
  #  listed first).
  #
  #  Constructed for dimers: 1.85 A, 2.15 A, 2.50 A, 3.00 A, 4.00 A
  #
  ################################################################################
  #  "First tier" - improvements: -336.21 meV to -36.85 meV
       hydro 3 d 4.3
       hydro 2 p 1.6
       hydro 4 f 7.2
       ionic 4 s auto
  #  "Second tier" - improvements: -14.39 meV to -1.49 meV
  #     hydro 5 g 10.4
  #     hydro 4 p 4.5
  #     hydro 4 d 6.2
  #     hydro 4 f 11.2
  #     hydro 1 s 0.65
  #     hydro 6 h 15.2
  #  "Third tier" - improvements: -0.46 meV and below
  #     hydro 5 g 14.4
  #     ionic 4 d auto
  #     hydro 4 f 22.4
  #     hydro 5 f 7.4
  #     hydro 5 p 8
  #     hydro 5 s 9.4
  #  "Fourth tier" - improvements: -0.12 meV and below
  #     hydro 5 d 11.6
  #     hydro 6 h 18
  #     hydro 4 p 4
  #     hydro 5 f 16
  #     hydro 4 s 3.9
  #
  #
  ################################################################################
  #
  #  FHI-aims code project
  # Volker Blum, Fritz Haber Institute Berlin, 2009
  #
  #  Suggested "tight" defaults for W atom (to be pasted into control.in file)
  #
  ################################################################################
    species          W
  #     global species definitions
      nucleus        74
      mass           183.84
  #
      l_hartree      6
  #
      cut_pot        4.0  2.0  1.0
      basis_dep_cutoff    1e-4
  #
      radial_base    71  7.0
      radial_multiplier  2
      angular_grids specified
        division   0.2901   50
        division   0.6986  110
        division   1.0528  194
        division   1.2659  302
        division   1.5223  434
  #      division   1.8111  590
  #      division   2.0105  770
  #      division   2.0413  974
  #      division   2.8804 1202
  #      outer_grid  974
        outer_grid  434
  ################################################################################
  #
  #  Definition of "minimal" basis
  #
  ################################################################################
  #     valence basis states
      valence      6  s   2.
      valence      5  p   6.
      valence      5  d   4.
      valence      4  f  14.
  #     ion occupancy
      ion_occ      6  s   1.
      ion_occ      5  p   6.
      ion_occ      5  d   3.
      ion_occ      4  f  14.
  ################################################################################
  #
  #  Suggested additional basis functions. For production calculations,
  #  uncomment them one after another (the most important basis functions are
  #  listed first).
  #
  #  Constructed for dimers: 1.775, 1.99, 2.50, 3.25, 4.50 AA
  #
  ################################################################################
  #
  #  "First tier" - improvements: -603.77 meV to -28.99 meV
       hydro 4 f 7.8
       hydro 4 d 5.8
       ionic 6 p auto
       hydro 5 g 12.4
       ionic 6 s auto
  #  "Second tier" - improvements: -28.30 meV to -1.31 meV
  #     hydro 6 h 16.8
  #     ionic 5 d auto
  #     hydro 4 f 8.6
  #     hydro 5 g 16.8
  #     hydro 5 d 8.4
  #     hydro 3 p 3.3
  #     hydro 1 s 0.55
  #  "Third tier" - max. impr. -1.79 meV, min. impr. -0.26 meV
  #     hydro 5 f 10.8
  #     hydro 5 g 34.4
  #     hydro 6 h 20.8
  #     hydro 5 g 12.8
  #     hydro 2 p 1.6
  #     hydro 4 s 4.7
  #     hydro 6 d 18.4
  #  "Fourth tier" -0.46 max. impr. - meV, min. impr. -0.09 meV
  #     hydro 6 h 21.6
  #     hydro 5 f 22.4
  #     hydro 4 f 4
  #     hydro 5 p 9.6
  #     hydro 6 d 17.2
  #     hydro 3 p 5.2
  #     hydro 5 g 4.7
  #     hydro 6 s 7.6
  
  -----------------------------------------------------------------------
  Completed first pass over input file control.in .
  -----------------------------------------------------------------------
  
  
  -----------------------------------------------------------------------
  Parsing geometry.in (first pass over file, find array dimensions only).
  The contents of geometry.in will be repeated verbatim below
  unless switched off by setting 'verbatim_writeout .false.' .
  in the first line of geometry.in .
  -----------------------------------------------------------------------
  
  #=======================================================
  # FHI-aims file: geometry.in
  # Created using the Atomic Simulation Environment (ASE)
  # Thu Apr  2 11:31:19 2020
  #=======================================================
  lattice_vector 3.2799999999999998 0.0000000000000000 0.0000000000000000
  lattice_vector -1.6399999999999999 2.8405633199999998 0.0000000000000000
  lattice_vector 0.0000000000000000 0.0000000000000000 103.4566499999999962
  atom_frac 0.0000000000000000 0.0000000000000000 0.5000000000000001 Se
  atom_frac 0.3333333333333330 0.6666666666666667 0.4832942106669799 W
  atom_frac 0.0000000000000000 0.0000000000000000 0.4665884213339598 Se
  symmetry_n_params 11 2 9
  symmetry_params a1 c3 x0 x1 x2 x3 x4 x5 x6 x7 x8
  symmetry_lv a1 , 0 , 0
  symmetry_lv -a1/2 , sqrt(3.0)*a1/2 , 0
  symmetry_lv 0 , 0 , c3
  symmetry_frac x0 , x1 , x2
  symmetry_frac x3 , x4 , x5
  symmetry_frac x6 , x7 , x8
  
  -----------------------------------------------------------------------
  Completed first pass over input file geometry.in .
  -----------------------------------------------------------------------
  

  Basic array size parameters:
  | Number of species                 :        2
  | Number of atoms                   :        3
  | Number of lattice vectors         :        3
  | Max. basis fn. angular momentum   :        4
  | Max. atomic/ionic basis occupied n:        6
  | Max. number of basis fn. types    :        3
  | Max. radial fns per species/type  :       14
  | Max. logarithmic grid size        :     1483
  | Max. radial integration grid size :      143
  | Max. angular integration grid size:      434
  | Max. angular grid division number :        8
  | Radial grid for Hartree potential :     1483
  | Number of spin channels           :        1

------------------------------------------------------------
          Reading file control.in.
------------------------------------------------------------
  XC: Using PBE gradient-corrected functionals.
  Using libMBD for calculating MBD and TS energies
  Spin treatment: No spin polarisation.
  Found k-point grid:         6         6         1
  Scalar relativistic treatment of kinetic energy: on-site free-atom approximation to ZORA.
  S.C.F. convergence parameters will be adjusted in iteration number     3 of each new s.c.f. cycle.
  Geometry relaxation: Modified BFGS - TRM (trust radius method) for lattice optimization.
  Convergence accuracy for geometry relaxation: Maximum force <   0.100000E-01 eV/A.
 
  Reading configuration options for species Se                  .
  | Found nuclear charge :  34.0000
  | Found atomic mass :    78.9600000000000      amu
  | Found l_max for Hartree potential  :   6
  | Found cutoff potl. onset [A], width [A], scale factor :    4.00000    2.00000    1.00000
  | Threshold for basis-dependent cutoff potential is   0.100000E-03
  | Found data for basic radial integration grid :    55 points, outermost radius =    7.000 A
  | Found multiplier for basic radial grid :   2
  | Found angular grid specification: user-specified.
  | Specified grid contains     5 separate shells.
  | Check grid settings after all constraints further below.
  | Found free-atom valence shell :  4 s   2.000
  | Found free-atom valence shell :  4 p   4.000
  | Found free-atom valence shell :  3 d  10.000
  | Found free-ion valence shell :  4 s   1.000
  | Found free-ion valence shell :  4 p   3.000
  | Found free-ion valence shell :  3 d  10.000
  | Found hydrogenic basis function :  3 d   4.300
  | Found hydrogenic basis function :  2 p   1.600
  | Found hydrogenic basis function :  4 f   7.200
  | Found ionic basis function :  4 s , default cutoff radius.
  Species Se                  : Missing cutoff potential type.
  Defaulting to exp(1/x)/(1-x)^2 type cutoff potential.
  Species Se: No 'logarithmic' tag. Using default grid for free atom:
  | Default logarithmic grid data [bohr] : 0.1000E-03 0.1000E+03 0.1012E+01
  | Will include ionic basis functions of  2.0-fold positive Se                   ion.
  Species Se: On-site basis accuracy parameter (for Gram-Schmidt orthonormalisation) not specified.
  Using default value basis_acc =  0.1000000E-03.
  Species Se                  : Using default innermost maximum threshold i_radial=  2 for radial functions.
  Species Se                  : Default cutoff onset for free atom density etc. : 0.40000000E+01 AA.
  Species Se                  : Basic radial grid will be enhanced according to radial_multiplier =   2, to contain   111 grid points.
 
  Reading configuration options for species W                   .
  | Found nuclear charge :  74.0000
  | Found atomic mass :    183.840000000000      amu
  | Found l_max for Hartree potential  :   6
  | Found cutoff potl. onset [A], width [A], scale factor :    4.00000    2.00000    1.00000
  | Threshold for basis-dependent cutoff potential is   0.100000E-03
  | Found data for basic radial integration grid :    71 points, outermost radius =    7.000 A
  | Found multiplier for basic radial grid :   2
  | Found angular grid specification: user-specified.
  | Specified grid contains     6 separate shells.
  | Check grid settings after all constraints further below.
  | Found free-atom valence shell :  6 s   2.000
  | Found free-atom valence shell :  5 p   6.000
  | Found free-atom valence shell :  5 d   4.000
  | Found free-atom valence shell :  4 f  14.000
  | Found free-ion valence shell :  6 s   1.000
  | Found free-ion valence shell :  5 p   6.000
  | Found free-ion valence shell :  5 d   3.000
  | Found free-ion valence shell :  4 f  14.000
  | Found hydrogenic basis function :  4 f   7.800
  | Found hydrogenic basis function :  4 d   5.800
  | Found ionic basis function :  6 p , default cutoff radius.
  | Found hydrogenic basis function :  5 g  12.400
  | Found ionic basis function :  6 s , default cutoff radius.
  Species W                   : Missing cutoff potential type.
  Defaulting to exp(1/x)/(1-x)^2 type cutoff potential.
  Species W : No 'logarithmic' tag. Using default grid for free atom:
  | Default logarithmic grid data [bohr] : 0.1000E-03 0.1000E+03 0.1012E+01
  | Will include ionic basis functions of  2.0-fold positive W                    ion.
  Species W : On-site basis accuracy parameter (for Gram-Schmidt orthonormalisation) not specified.
  Using default value basis_acc =  0.1000000E-03.
  Species W                   : Using default innermost maximum threshold i_radial=  2 for radial functions.
  Species W                   : Default cutoff onset for free atom density etc. : 0.40000000E+01 AA.
  Species W                   : Basic radial grid will be enhanced according to radial_multiplier =   2, to contain   143 grid points.
 
  Finished reading input file 'control.in'. Consistency checks are next.
 
  MPI_IN_PLACE appears to work with this MPI implementation.
  | Keeping use_mpi_in_place .true. (see manual).
  Target number of points in a grid batch is not set. Defaulting to  100
  Method for grid partitioning is not set. Defaulting to parallel hash+maxmin partitioning.
  Batch size limit is not set. Defaulting to    200
  By default, will store active basis functions for each batch.
  If in need of memory, prune_basis_once .false. can be used to disable this option.
  communication_type for Hartree potential was not specified.
  Defaulting to calc_hartree .
  Defaulting to Pulay charge density mixer.
  Pulay mixer: Number of relevant iterations not set.
  Defaulting to    8 iterations.
  Pulay mixer: Number of initial linear mixing iterations not set.
  Defaulting to    0 iterations.
  Work space size for distributed Hartree potential not set.
  Defaulting to   0.200000E+03 MB.
  Mixing parameter for charge density mixing has not been set.
  Using default: charge_mix_param =     0.0500.
  The mixing parameter will be adjusted in iteration number     3 of each s.c.f. cycle (i.e., each geometry step).
  Algorithm-dependent basis array size parameters:
  | n_max_pulay                         :        8
  Maximum number of self-consistency iterations not provided.
  Presetting  1000 iterations.
  Presetting      1001 iterations before the initial mixing cycle
  is restarted anyway using the sc_init_iter criterion / keyword.
  Presetting a factor      1.000 between actual scf density residual
  and density convergence criterion sc_accuracy_rho below which sc_init_iter
  takes no effect.
 * No s.c.f. convergence criteria (sc_accuracy_*) were provided in control.in.
 * The run will proceed with a reasonable default guess, but please check whether.
 * the s.c.f. cycles seem to take too much or too little time.
  No maximum number of relaxation steps, defaulting to     1000
  Default initial Hessian is Lindh matrix (thres = 15.00) plus  0.200000E+01 eV/A^2 times unity.
  No maximum energy tolerance for TRM/BFGS moves, defaulting to   0.100000E-02
  Maximum energy tolerance by which TRM/BFGS trajectory may increase over multiple steps:   0.300000E-02
  No harmonic length scale. Defaulting to   0.250000E-01 A.
  No trust radius initializer. Defaulting to   0.200000E+00 A.
  Unit cell relaxation: Unit cell will be relaxed fully.
  Unit cell relaxation: Analytical stress will be used.
  Analytical stress will be computed.
  Analytical stress calculation: Only the upper triangle is calculated.
                                 Final output is symmetrized.
  Analytical stress calculation: scf convergence accuracy of stress not set.
                                 Analytical stress self-consistency will not be checked explicitly.
                                 Be sure to set other criteria like sc_accuracy_rho tight enough.
 * Notice: The s.c.f. convergence criterion sc_accuracy_rho was not provided.
 * We used to stop in this case, and ask the user to provide reasonable
 * scf convergence criteria. However, this led some users to employ criteria
 * that led to extremely long run times, e.g., for simple relaxation.
 * We now preset a default value for sc_accuracy_rho if it is not set.
 * You may still wish to check if this setting is too tight or too loose for your needs.
 * Based on n_atoms, FHI-aims chose sc_accuracy_rho =  0.100000E-05 .
  Force calculation: scf convergence accuracy of forces not set.
  Defaulting to 'sc_accuracy_forces not_checked'.
  Handling of forces: Unphysical translation and rotation will be removed from forces.
  No accuracy limit for integral partition fn. given. Defaulting to  0.1000E-14.
  No threshold value for u(r) in integrations given. Defaulting to  0.1000E-05.
  No occupation type (smearing scheme) given. Defaulting to Gaussian broadening, width =  0.1000E-01 eV.
  The width will be adjusted in iteration number     3 of each s.c.f. cycle (i.e., each geometry step).
  S.C.F. convergence parameters will be adjusted in iteration number     3 of the first full s.c.f. cycle only.
  No accuracy for occupation numbers given. Defaulting to  0.1000E-12.
  No threshold value for occupation numbers given. Defaulting to  0.0000E+00.
  No accuracy for fermi level given. Defaulting to  0.1000E-19.
  Maximum # of iterations to find E_F not set. Defaulting to  200.
  Preferred method for the eigenvalue solver ('KS_method') not specified in 'control.in'.
  Defaulting to serial version, LAPACK (via ELSI), since more k-points than CPUs available.
  Will not use alltoall communication since running on < 1024 CPUs.
  Threshold for basis singularities not set.
  Default threshold for basis singularities:  0.1000E-04
  partition_type (choice of integration weights) for integrals was not specified.
  | Using a version of the partition function of Stratmann and coworkers ('stratmann_sparse').
  | At each grid point, the set of atoms used to build the partition table is smoothly restricted to
  | only those atoms whose free-atom density would be non-zero at that grid point.
  Partitioning for Hartree potential was not defined. Using partition_type for integrals.
  | Adjusted default value of keyword multip_moments_threshold to:       0.10000000E-11
  | This value may affect high angular momentum components of the Hartree potential in periodic systems.
  Angular momentum expansion for Kerker preconditioner not set explicitly.
  | Using default value of   0
  No explicit requirement for turning off preconditioner.
  | By default, it will be turned off when the charge convergence reaches
  | sc_accuracy_rho  =   0.100000E-05
  No special mixing parameter while Kerker preconditioner is on.
  Using default: charge_mix_param =     0.0500.
  No q(lm)/r^(l+1) cutoff set for long-range Hartree potential.
  | Using default value of  0.100000E-09 .
  | Verify using the multipole_threshold keyword.
  Defaulting to new monopole extrapolation.
  Density update method: automatic selection selected.
  Using density matrix based charge density update.
  Using density matrix based charge density update.
  Using packed matrix style: index .
  Geometry relaxation: A file "geometry.in.next_step" is written out by default after each step.
  | This file contains the geometry of the current relaxation step as well as
  | the current Hessian matrix needed to restart the relaxation algorithm.
  | If you do not want part or all of this information, use the keywords
  | "write_restart_geometry" or "hessian_to_restart_geometry" to switch the output off.
  Defaulting to use time-reversal symmetry for k-point grid.
  Charge integration errors on the 3D integration grid will be compensated
  by explicit normalization and distribution of residual charges.
  Use the "compensate_multipole_errors" flag to change this behaviour.
------------------------------------------------------------


------------------------------------------------------------
          Reading geometry description geometry.in.
------------------------------------------------------------
  Input structure read successfully.
  The structure contains        3 atoms,  and a total of        142.000 electrons.

  Input geometry:
  | Unit cell:
  |        3.28000000        0.00000000        0.00000000
  |       -1.64000000        2.84056332        0.00000000
  |        0.00000000        0.00000000      103.45665000
  | Atomic structure:
  |       Atom                x [A]            y [A]            z [A]
  |    1: Species Se            0.00000000        0.00000000       51.72832500
  |    2: Species W            -0.00000000        1.89370888       50.00000000
  |    3: Species Se            0.00000000        0.00000000       48.27167500

  Lattice parameters for 3D lattice (in Angstroms) :     3.280000    3.280000  103.456650
  Angle(s) between unit vectors (in degrees)       :    90.000000   90.000000  120.000000

  | The smallest distance between any two atoms is         2.56383319 AA.
  | The first atom of this pair is atom number                      1 .
  | The second atom of this pair is atom number                     2 .
  | Wigner-Seitz cell of the first atom image           0    -1     1 .
  | (The Wigner-Seitz cell of the second atom is 0 0 0  by definition.)

  Symmetry information by spglib:
  | Precision set to  0.1E-04
  | Number of Operations  : 12
  | Space group           : 187
  | International         : P-6m2
  | Schoenflies           : D3h^1

  Quantities derived from the lattice vectors:
  | Reciprocal lattice vector 1:  1.915605  1.105975  0.000000
  | Reciprocal lattice vector 2: -0.000000  2.211950  0.000000
  | Reciprocal lattice vector 3:  0.000000  0.000000  0.060733
  | Unit cell volume                               :   0.963911E+03  A^3

  Range separation radius for Ewald summation (hartree_convergence_parameter):      5.00000000 bohr.

  Fractional coordinates:
                         L1                L2                L3
       atom_frac         0.00000000        0.00000000        0.50000000  Se
       atom_frac         0.33333333        0.66666667        0.48329421  W
       atom_frac         0.00000000        0.00000000        0.46658842  Se

  Number of empty states per atom not set in control.in - providing a guess from actual geometry.
  | Total number of empty states used during s.c.f. cycle:       20
  If you use a very high smearing, use empty_states (per atom!) in control.in to increase this value.

  Structure-dependent array size parameters: 
  | Maximum number of distinct radial functions  :       31
  | Maximum number of basis functions            :      133
  | Number of Kohn-Sham states (occupied + empty):       91
------------------------------------------------------------

------------------------------------------------------------
          Preparing all fixed parts of the calculation.
------------------------------------------------------------
  Determining machine precision:
    2.225073858507201E-308
  Setting up grids for atomic and cluster calculations.

  Creating wave function, potential, and density for free atoms.

  Species: Se

  List of occupied orbitals and eigenvalues:
    n    l              occ      energy [Ha]    energy [eV]
    1    0           2.0000      -466.337810    -12689.6975
    2    0           2.0000       -59.202598     -1610.9847
    3    0           2.0000        -7.847116      -213.5309
    4    0           2.0000        -0.634372       -17.2621
    2    1           6.0000       -52.061107     -1416.6548
    3    1           6.0000        -5.620941      -152.9536
    4    1           4.0000        -0.238469        -6.4891
    3    2          10.0000        -1.951949       -53.1152


  Species: W

  List of occupied orbitals and eigenvalues:
    n    l              occ      energy [Ha]    energy [eV]
    1    0           2.0000     -2764.899999    -75236.7570
    2    0           2.0000      -447.822848    -12185.8797
    3    0           2.0000      -101.923634     -2773.4832
    4    0           2.0000       -20.945301      -569.9506
    5    0           2.0000        -2.899582       -78.9016
    6    0           2.0000        -0.207066        -5.6345
    2    1           6.0000      -391.021390    -10640.2334
    3    1           6.0000       -85.417793     -2324.3364
    4    1           6.0000       -15.562838      -423.4864
    5    1           6.0000        -1.582233       -43.0547
    3    2          10.0000       -66.517936     -1810.0451
    4    2          10.0000        -8.758436      -238.3292
    5    2           4.0000        -0.161873        -4.4048
    4    3          14.0000        -1.221948       -33.2509

  Creating fixed part of basis set: Ionic, confined, hydrogenic.
 
  Se                   ion:

  List of free ionic orbitals and eigenvalues:
    n    l      energy [Ha]    energy [eV]
    1    0      -467.261007    -12714.8189
    2    0       -60.104893     -1635.5374
    3    0        -8.743714      -237.9286
    4    0        -1.414053       -38.4783
    2    1       -52.964156     -1441.2280
    3    1        -6.516916      -177.3343
    4    1        -0.961869       -26.1738
    3    2        -2.844511       -77.4031


  List of ionic basis orbitals and eigenvalues:
    n    l      energy [Ha]    energy [eV]    outer radius [A]
    4    0        -1.414046       -38.4782       4.083166

 
  Se                   hydrogenic:
 
  List of hydrogenic basis orbitals: 
    n    l      effective z      eigenvalue [eV]  inner max. [A]     outer max. [A]     outer radius [A]   
    3    2         4.300000       -27.9518           1.103845           1.103845           5.278265
    2    1         1.600000        -8.6828           1.326010           1.326010           5.475439
    4    3         7.200000       -44.0822           1.173422           1.173422           4.965294
 
 
  W                    ion:

  List of free ionic orbitals and eigenvalues:
    n    l      energy [Ha]    energy [eV]
    1    0     -2765.664016    -75257.5469
    2    0      -448.543169    -12205.4806
    3    0      -102.635476     -2792.8534
    4    0       -21.655379      -589.2728
    5    0        -3.604872       -98.0936
    6    0        -0.752243       -20.4696
    2    1      -391.740682    -10659.8063
    3    1       -86.129333     -2343.6984
    4    1       -16.272893      -442.8080
    5    1        -2.280103       -62.0448
    3    2       -67.229405     -1829.4052
    4    2        -9.468448      -257.6496
    5    2        -0.806537       -21.9470
    4    3        -1.931058       -52.5468


  List of ionic basis orbitals and eigenvalues:
    n    l      energy [Ha]    energy [eV]    outer radius [A]
    6    1        -0.508246       -13.8301       5.434360
    6    0        -0.752227       -20.4691       5.368330

 
  W                    hydrogenic:
 
  List of hydrogenic basis orbitals: 
    n    l      effective z      eigenvalue [eV]  inner max. [A]     outer max. [A]     outer radius [A]   
    4    3         7.800000       -51.7355           1.082252           1.082252           4.692859
    4    2         5.800000       -28.5979           0.616741           1.946131           5.434360
    5    4        12.400000       -83.6803           1.069102           1.069102           4.307971
 

  Adding cutoff potential to free-atom effective potential.
  Creating atomic-like basis functions for current effective potential.

  Species Se                  :

  List of atomic basis orbitals and eigenvalues:
    n    l      energy [Ha]    energy [eV]    outer radius [A]
    1    0      -466.337810    -12689.6975       0.309561
    2    0       -59.202598     -1610.9847       0.885812
    3    0        -7.847116      -213.5309       2.355489
    4    0        -0.634372       -17.2621       5.214131
    2    1       -52.061107     -1416.6548       0.907737
    3    1        -5.620941      -152.9536       2.694529
    4    1        -0.238469        -6.4891       5.408909
    3    2        -1.951949       -53.1152       4.083166


  Species W                   :

  List of atomic basis orbitals and eigenvalues:
    n    l      energy [Ha]    energy [eV]    outer radius [A]
    1    0     -2764.899999    -75236.7570       0.130566
    2    0      -447.822848    -12185.8797       0.342973
    3    0      -101.923634     -2773.4832       0.722975
    4    0       -20.945301      -569.9506       1.542753
    5    0        -2.899582       -78.9016       3.859132
    6    0        -0.207066        -5.6345       5.434360
    2    1      -391.021390    -10640.2334       0.355785
    3    1       -85.417793     -2324.3364       0.768545
    4    1       -15.562838      -423.4864       1.722184
    5    1        -1.582233       -43.0547       4.750581
    3    2       -66.517936     -1810.0451       0.827037
    4    2        -8.758436      -238.3292       2.172477
    5    2        -0.161873        -4.4048       5.368330
    4    3        -1.221948       -33.2509       4.579510

  Assembling full basis from fixed parts.
  | Species Se :   atomic orbital   1 s accepted.
  | Species Se :   atomic orbital   2 s accepted.
  | Species Se :   atomic orbital   3 s accepted.
  | Species Se :    ionic orbital   4 s accepted.
  | Species Se :   atomic orbital   4 s accepted.
  | Species Se :   atomic orbital   2 p accepted.
  | Species Se :   atomic orbital   3 p accepted.
  | Species Se :   atomic orbital   4 p accepted.
  | Species Se :    hydro orbital   2 p accepted.
  | Species Se :   atomic orbital   3 d accepted.
  | Species Se :    hydro orbital   3 d accepted.
  | Species Se :    hydro orbital   4 f accepted.
  | Species W :   atomic orbital   1 s accepted.
  | Species W :   atomic orbital   2 s accepted.
  | Species W :   atomic orbital   3 s accepted.
  | Species W :   atomic orbital   4 s accepted.
  | Species W :   atomic orbital   5 s accepted.
  | Species W :    ionic orbital   6 s accepted.
  | Species W :   atomic orbital   6 s accepted.
  | Species W :   atomic orbital   2 p accepted.
  | Species W :   atomic orbital   3 p accepted.
  | Species W :   atomic orbital   4 p accepted.
  | Species W :   atomic orbital   5 p accepted.
  | Species W :    ionic orbital   6 p accepted.
  | Species W :   atomic orbital   3 d accepted.
  | Species W :   atomic orbital   4 d accepted.
  | Species W :   atomic orbital   5 d accepted.
  | Species W :    hydro orbital   4 d accepted.
  | Species W :   atomic orbital   4 f accepted.
  | Species W :    hydro orbital   4 f accepted.
  | Species W :    hydro orbital   5 g accepted.
 
  Basis size parameters after reduction:
  | Total number of radial functions:       31
  | Total number of basis functions :      133
 
  Per-task memory consumption for arrays in subroutine allocate_ext:
  |          11.774048MB.
  Testing on-site integration grid accuracy.
  |  Species  Function  <phi|h_atom|phi> (log., in eV)  <phi|h_atom|phi> (rad., in eV)
           1        1             -12689.6974611609             -12689.6967666984
           1        2              -1610.9846578580              -1610.9846472470
           1        3               -213.5308789869               -213.5308777267
           1        4                -17.0464428502                -17.0464426496
           1        5                  6.7356859379                  6.7356842047
           1        6              -1416.6548010133              -1416.6548002108
           1        7               -152.9535734377               -152.9535727493
           1        8                 -6.4896265677                 -6.4896303794
           1        9                  5.2703037283                  5.2701679583
           1       10                -53.1152220964                -53.1152219035
           1       11                  7.6186674138                  7.6186665630
           1       12                 23.1072799052                 23.1072803137
           2       13             -75236.7569897399             -75236.7398021817
           2       14             -12185.8796968880             -12185.8793671389
           2       15              -2773.4831911435              -2773.4831624928
           2       16               -569.9506420417               -569.9506363235
           2       17                -78.9016401754                -78.9016385970
           2       18                 -5.1691854985                 -5.1691848359
           2       19                  4.5636857937                  4.5638143911
           2       20             -10640.2333851158             -10640.2333803363
           2       21              -2324.3364165327              -2324.3364072919
           2       22               -423.4863614587               -423.4863574859
           2       23                -43.0547390743                -43.0547381502
           2       24                 -0.2794590887                 -0.2794514858
           2       25              -1810.0451240061              -1810.0451202456
           2       26               -238.3291788481               -238.3291766729
           2       27                 -4.4054312548                 -4.4054293965
           2       28                  8.2928303327                  8.2928369209
           2       29                -33.2508975445                -33.2508971534
           2       30                 21.3563540729                 21.3563541106
           2       31                 49.8060668070                 49.8060668105

  Preparing densities etc. for the partition functions (integrals / Hartree potential).

  Preparations completed.
  max(cpu_time)          :      0.715 s.
  Wall clock time (cpu1) :      0.878 s.
------------------------------------------------------------

------------------------------------------------------------
          Begin self-consistency loop: Initialization.

          Date     :  20200403, Time     :  081304.853
------------------------------------------------------------

  Initializing index lists of integration centers etc. from given atomic structure:
  Mapping all atomic coordinates to central unit cell.

  Initializing the k-points
  Using symmetry for reducing the k-points
  | k-points reduced from:       36 to       20
  | Number of k-points                             :        20
  The eigenvectors in the calculations are COMPLEX.
  | K-points in task   0:         0
  | K-points in task   1:         1
  | K-points in task   2:         1
  | K-points in task   3:         1
  | K-points in task   4:         1
  | K-points in task   5:         1
  | K-points in task   6:         1
  | K-points in task   7:         1
  | K-points in task   8:         1
  | K-points in task   9:         1
  | K-points in task  10:         1
  | K-points in task  11:         1
  | K-points in task  12:         1
  | K-points in task  13:         1
  | K-points in task  14:         1
  | K-points in task  15:         1
  | K-points in task  16:         1
  | K-points in task  17:         1
  | K-points in task  18:         1
  | K-points in task  19:         1
  | K-points in task  20:         1
  | K-points in task  21:         0
  | K-points in task  22:         0
  | K-points in task  23:         0
  | Number of basis functions in the Hamiltonian integrals :      3306
  | Number of basis functions in a single unit cell        :       133
  | Number of centers in hartree potential         :       339
  | Number of centers in hartree multipole         :       177
  | Number of centers in electron density summation:       132
  | Number of centers in basis integrals           :       216
  | Number of centers in integrals                 :       131
  | Number of centers in hamiltonian               :       132
  | Consuming         22 KiB for k_phase.
  | Number of super-cells (origin) [n_cells]                     :         675
  | Number of super-cells (after PM_index) [n_cells]             :          73
  | Number of super-cells in hamiltonian [n_cells_in_hamiltonian]:          52
  | Size of matrix packed + index [n_hamiltonian_matrix_size] :      202843

  Initializing relaxation algorithms.
  | Estimated reciprocal-space cutoff momentum G_max:         1.90186217 bohr^-1 .
  | Reciprocal lattice points for long-range Hartree potential:     676
  Partitioning the integration grid into batches with parallel hashing+maxmin method.
  | Number of batches:     1321
  | Maximal batch size:     155
  | Minimal batch size:      68
  | Average batch size:      75.423
  | Standard deviation of batch sizes:      14.471

  Integration load balanced across    24 MPI tasks.
  Work distribution over tasks is as follows:
  Task     0 has       4152 integration points.
  Task     1 has       4140 integration points.
  Task     2 has       4142 integration points.
  Task     3 has       4132 integration points.
  Task     4 has       4138 integration points.
  Task     5 has       4138 integration points.
  Task     6 has       4155 integration points.
  Task     7 has       4154 integration points.
  Task     8 has       4155 integration points.
  Task     9 has       4131 integration points.
  Task    10 has       4140 integration points.
  Task    11 has       4169 integration points.
  Task    12 has       4203 integration points.
  Task    13 has       4141 integration points.
  Task    14 has       4152 integration points.
  Task    15 has       4140 integration points.
  Task    16 has       4200 integration points.
  Task    17 has       4152 integration points.
  Task    18 has       4134 integration points.
  Task    19 has       4200 integration points.
  Task    20 has       4166 integration points.
  Task    21 has       4131 integration points.
  Task    22 has       4131 integration points.
  Task    23 has       4138 integration points.
  Initializing partition tables, free-atom densities, potentials, etc. across the integration grid (initialize_grid_storage).
  | initialize_grid_storage: Actual outermost partition radius vs. multipole_radius_free
  | (-- VB: in principle, multipole_radius_free should be larger, hence this output)
  | Species        1: Confinement radius =              6.000000000000000 AA, multipole_radius_free =              6.037996416842453 AA.
  | Species        1: outer_partition_radius set to              6.037996416842453 AA .
  | Species        2: Confinement radius =              6.000000000000000 AA, multipole_radius_free =              6.066407844853155 AA.
  | Species        2: outer_partition_radius set to              6.066407844853155 AA .
  | The sparse table of interatomic distances needs        278.21 kbyte instead of       373.25 kbyte of memory.
  | Net number of integration points:    99634
  | of which are non-zero points    :    85038
  | Numerical average free-atom electrostatic potential    :     -1.32147320 eV
  Renormalizing the initial density to the exact electron count on the 3D integration grid.
  | Initial density: Formal number of electrons (from input files) :     142.0000000000
  | Integrated number of electrons on 3D grid     :     141.9999144118
  | Charge integration error                      :      -0.0000855882
  | Normalization factor for density and gradient :       1.0000006027
  Renormalizing the free-atom superposition density to the exact electron count on the 3D integration grid.
  | Formal number of electrons (from input files) :     142.0000000000
  | Integrated number of electrons on 3D grid     :     141.9999144118
  | Charge integration error                      :      -0.0000855882
  | Normalization factor for density and gradient :       1.0000006027
  Obtaining max. number of non-zero basis functions in each batch (get_n_compute_maxes).
  | Maximal number of non-zero basis functions:      937 in task     0
  | Maximal number of non-zero basis functions:      987 in task     1
  | Maximal number of non-zero basis functions:      985 in task     2
  | Maximal number of non-zero basis functions:      967 in task     3
  | Maximal number of non-zero basis functions:      888 in task     4
  | Maximal number of non-zero basis functions:      931 in task     5
  | Maximal number of non-zero basis functions:      922 in task     6
  | Maximal number of non-zero basis functions:      939 in task     7
  | Maximal number of non-zero basis functions:     1001 in task     8
  | Maximal number of non-zero basis functions:      924 in task     9
  | Maximal number of non-zero basis functions:      978 in task    10
  | Maximal number of non-zero basis functions:      930 in task    11
  | Maximal number of non-zero basis functions:      949 in task    12
  | Maximal number of non-zero basis functions:      905 in task    13
  | Maximal number of non-zero basis functions:      939 in task    14
  | Maximal number of non-zero basis functions:      981 in task    15
  | Maximal number of non-zero basis functions:      903 in task    16
  | Maximal number of non-zero basis functions:      906 in task    17
  | Maximal number of non-zero basis functions:      911 in task    18
  | Maximal number of non-zero basis functions:      916 in task    19
  | Maximal number of non-zero basis functions:      985 in task    20
  | Maximal number of non-zero basis functions:      945 in task    21
  | Maximal number of non-zero basis functions:      925 in task    22
  | Maximal number of non-zero basis functions:      946 in task    23
  Allocating        0.000 MB for KS_eigenvector_complex
  Integrating Hamiltonian matrix: batch-based integration.
  Time summed over all CPUs for integration: real work       13.344 s, elapsed       13.588 s
  Integrating overlap matrix.
  Time summed over all CPUs for integration: real work        9.209 s, elapsed        9.398 s
  Decreasing sparse matrix size:
  | Tolerance:  0.1000E-12
  Hamiltonian matrix
  | Array has   159117 nonzero elements out of   202843 elements
  | Sparsity factor is 0.216
  Overlap matrix
  | Array has   146243 nonzero elements out of   202843 elements
  | Sparsity factor is 0.279
  New size of hamiltonian matrix:      160379

  Updating Kohn-Sham eigenvalues and eigenvectors using ELSI and the (modified) LAPACK eigensolver.

  Obtaining occupation numbers and chemical potential using ELSI.
  | Chemical potential (Fermi level):    -6.12944789 eV
  Writing Kohn-Sham eigenvalues.
  K-point:       1 at    0.000000    0.000000    0.000000 (in units of recip. lattice)

  State    Occupation    Eigenvalue [Ha]    Eigenvalue [eV]
      1       2.00000       -2764.916660       -75237.21035
      2       2.00000        -466.356607       -12690.20894
      3       2.00000        -466.356607       -12690.20894
      4       2.00000        -447.837840       -12186.28767
      5       2.00000        -391.036154       -10640.63514
      6       2.00000        -391.036153       -10640.63511
      7       2.00000        -391.036152       -10640.63509
      8       2.00000        -101.938724        -2773.89382
      9       2.00000         -85.432850        -2324.74613
     10       2.00000         -85.432837        -2324.74579
     11       2.00000         -85.432837        -2324.74578
     12       2.00000         -66.532933        -1810.45322
     13       2.00000         -66.532931        -1810.45318
     14       2.00000         -66.532931        -1810.45317
     15       2.00000         -66.532923        -1810.45296
     16       2.00000         -66.532923        -1810.45296
     17       2.00000         -59.221922        -1611.51049
     18       2.00000         -59.221922        -1611.51049
     19       2.00000         -52.080421        -1417.18035
     20       2.00000         -52.080421        -1417.18035
     21       2.00000         -52.080363        -1417.17878
     22       2.00000         -52.080363        -1417.17878
     23       2.00000         -52.080363        -1417.17877
     24       2.00000         -52.080363        -1417.17877
     25       2.00000         -20.961648         -570.39546
     26       2.00000         -15.579469         -423.93893
     27       2.00000         -15.579391         -423.93679
     28       2.00000         -15.579391         -423.93679
     29       2.00000          -8.775411         -238.79107
     30       2.00000          -8.775411         -238.79107
     31       2.00000          -8.775375         -238.79010
     32       2.00000          -8.775313         -238.78843
     33       2.00000          -8.775313         -238.78843
     34       2.00000          -7.869061         -214.12805
     35       2.00000          -7.869061         -214.12805
     36       2.00000          -5.643607         -153.57036
     37       2.00000          -5.643607         -153.57035
     38       2.00000          -5.642901         -153.55115
     39       2.00000          -5.642901         -153.55115
     40       2.00000          -5.642901         -153.55115
     41       2.00000          -5.642901         -153.55115
     42       2.00000          -2.926521          -79.63470
     43       2.00000          -1.975546          -53.75733
     44       2.00000          -1.975546          -53.75733
     45       2.00000          -1.975508          -53.75630
     46       2.00000          -1.975508          -53.75630
     47       2.00000          -1.975508          -53.75630
     48       2.00000          -1.975453          -53.75480
     49       2.00000          -1.974677          -53.73370
     50       2.00000          -1.974677          -53.73370
     51       2.00000          -1.974671          -53.73353
     52       2.00000          -1.974671          -53.73353
     53       2.00000          -1.619420          -44.06665
     54       2.00000          -1.612180          -43.86966
     55       2.00000          -1.612180          -43.86965
     56       2.00000          -1.240682          -33.76066
     57       2.00000          -1.240682          -33.76066
     58       2.00000          -1.240572          -33.75769
     59       2.00000          -1.240555          -33.75723
     60       2.00000          -1.240478          -33.75511
     61       2.00000          -1.240478          -33.75511
     62       2.00000          -1.240074          -33.74414
     63       2.00000          -0.775304          -21.09709
     64       2.00000          -0.730208          -19.86996
     65       2.00000          -0.459190          -12.49521
     66       2.00000          -0.312719           -8.50952
     67       2.00000          -0.309577           -8.42401
     68       2.00000          -0.309576           -8.42398
     69       2.00000          -0.267398           -7.27627
     70       2.00000          -0.267398           -7.27626
     71       2.00000          -0.244381           -6.64995
     72       0.00000          -0.117437           -3.19562
     73       0.00000          -0.117436           -3.19559
     74       0.00000          -0.114178           -3.10693
     75       0.00000          -0.114177           -3.10692
     76       0.00000          -0.053311           -1.45067
     77       0.00000           0.062850            1.71025
     78       0.00000           0.068782            1.87164
     79       0.00000           0.089562            2.43710
     80       0.00000           0.182623            4.96943
     81       0.00000           0.182626            4.96951
     82       0.00000           0.212782            5.79009
     83       0.00000           0.271290            7.38218
     84       0.00000           0.271292            7.38222
     85       0.00000           0.370755           10.08877
     86       0.00000           0.379563           10.32843
     87       0.00000           0.416901           11.34445
     88       0.00000           0.416902           11.34449
     89       0.00000           0.422115           11.48634
     90       0.00000           0.422118           11.48641
     91       0.00000           0.461004           12.54456

  What follows are estimated values for band gap, HOMO, LUMO, etc.
  | They are estimated on a discrete k-point grid and not necessarily exact.
  | For converged numbers, create a DOS and/or band structure plot on a denser k-grid.

  Highest occupied state (VBM) at     -6.17580537 eV (relative to internal zero)
  | Occupation number:      2.00000000
  | K-point:      11 at    0.333333    0.333333    0.000000 (in units of recip. lattice)

  Lowest unoccupied state (CBM) at    -4.55472961 eV (relative to internal zero)
  | Occupation number:      0.00000000
  | K-point:       8 at    0.166667    0.666667    0.000000 (in units of recip. lattice)

  ESTIMATED overall HOMO-LUMO gap:      1.62107575 eV between HOMO at k-point 11 and LUMO at k-point 8
  | This appears to be an indirect band gap.
  | Smallest direct gap :      1.73161462 eV for k_point 11 at    0.166667    0.666667    0.000000 (in units of recip. lattice)
  The gap value is above 0.2 eV. Unless you are using a very sparse k-point grid,
  this system is most likely an insulator or a semiconductor.
  Calculating total energy contributions from superposition of free atom densities.

  Total energy components:
  | Sum of eigenvalues            :      -13283.19558168 Ha     -361454.14236171 eV
  | XC energy correction          :        -503.87085813 Ha      -13711.02365899 eV
  | XC potential correction       :         657.80838233 Ha       17899.87681877 eV
  | Free-atom electrostatic energy:       -8398.26766151 Ha     -228528.49047133 eV
  | Hartree energy correction     :           0.00000000 Ha           0.00000000 eV
  | vdW energy correction         :           0.00000000 Ha           0.00000000 eV
  | Entropy correction            :          -0.00000000 Ha          -0.00000000 eV
  | ---------------------------
  | Total energy                  :      -21527.52571900 Ha     -585793.77967326 eV
  | Total energy, T -> 0          :      -21527.52571900 Ha     -585793.77967326 eV  <-- do not rely on this value for anything but (periodic) metals
  | Electronic free energy        :      -21527.52571900 Ha     -585793.77967326 eV

  Derived energy quantities:
  | Kinetic energy                :       23361.76119504 Ha      635705.86647541 eV
  | Electrostatic energy          :      -44385.41605590 Ha    -1207788.62248967 eV
  | Energy correction for multipole
  | error in Hartree potential    :           0.00000000 Ha           0.00000000 eV
  | Sum of eigenvalues per atom                           :     -120484.71412057 eV
  | Total energy (T->0) per atom                          :     -195264.59322442 eV  <-- do not rely on this value for anything but (periodic) metals
  | Electronic free energy per atom                       :     -195264.59322442 eV
  Initialize hartree_potential_storage
  Max. number of atoms included in rho_multipole:            3

  End scf initialization - timings             :  max(cpu_time)    wall_clock(cpu1)
  | Time for scf. initialization               :        2.881 s           2.967 s
  | Boundary condition initialization          :        1.147 s           1.161 s
  | Relaxation initialization                  :        0.004 s           0.005 s
  | Integration                                :        0.960 s           0.974 s
  | Solution of K.-S. eqns.                    :        0.071 s           0.071 s
  | Grid partitioning                          :        0.482 s           0.482 s
  | Preloading free-atom quantities on grid    :        0.030 s           0.030 s
  | Free-atom superposition energy             :        0.020 s           0.020 s
  | Total energy evaluation                    :        0.000 s           0.001 s

  Partial memory accounting:
  | Current value for overall tracked memory usage:
  |   Minimum:        3.069 MB (on task  0)
  |   Maximum:        3.254 MB (on task  1)
  |   Average:        3.223 MB
  | Peak value for overall tracked memory usage:
  |   Minimum:       13.251 MB (on task  4 after allocating wave)
  |   Maximum:       15.283 MB (on task  8 after allocating wave)
  |   Average:       14.168 MB
  | Largest tracked array allocation so far:
  |   Minimum:        6.016 MB (hamiltonian_shell on task  4)
  |   Maximum:        7.645 MB (hamiltonian_shell on task  8)
  |   Average:        6.773 MB
  Note:  These values currently only include a subset of arrays which are explicitly tracked.
  The "true" memory usage will be greater.
------------------------------------------------------------

------------------------------------------------------------
          Begin self-consistency iteration #    1

  Date     :  20200403, Time     :  081307.827
------------------------------------------------------------
  Evaluating new KS density using the density matrix
  Evaluating density matrix
  Time summed over all CPUs for getting density from density matrix: real work       23.668 s, elapsed       24.343 s
  Integration grid: deviation in total charge (<rho> - N_e) =  -3.126388E-12
  Pulay mixing of updated and previous charge densities.
  Renormalizing the density to the exact electron count on the 3D integration grid.
  | Formal number of electrons (from input files) :     142.0000000000
  | Integrated number of electrons on 3D grid     :     141.9997991729
  | Charge integration error                      :      -0.0002008271
  | Normalization factor for density and gradient :       1.0000014143

  Evaluating partitioned Hartree potential by multipole expansion.
  | Original multipole sum: apparent total charge =  -0.155648E-13
  | Sum of charges compensated after spline to logarithmic grids =   0.321689E-07
  | Analytical far-field extrapolation by fixed multipoles:
  | Hartree multipole sum: apparent total charge =  -0.155600E-13
  Summing up the Hartree potential.
  Time summed over all CPUs for potential: real work        6.312 s, elapsed        6.464 s
  | RMS charge density error from multipole expansion :   0.217755E-03
  | Average real-space part of the electrostatic potential :      0.00027788 eV

  Integrating Hamiltonian matrix: batch-based integration.
  Time summed over all CPUs for integration: real work       12.683 s, elapsed       12.938 s

  Updating Kohn-Sham eigenvalues and eigenvectors using ELSI and the (modified) LAPACK eigensolver.

  Obtaining occupation numbers and chemical potential using ELSI.
  | Chemical potential (Fermi level):    -5.95200525 eV
  Writing Kohn-Sham eigenvalues.
  K-point:       1 at    0.000000    0.000000    0.000000 (in units of recip. lattice)

  State    Occupation    Eigenvalue [Ha]    Eigenvalue [eV]
      1       2.00000       -2764.912272       -75237.09095
      2       2.00000        -466.351602       -12690.07275
      3       2.00000        -466.351602       -12690.07275
      4       2.00000        -447.833633       -12186.17317
      5       2.00000        -391.031937       -10640.52038
      6       2.00000        -391.031934       -10640.52030
      7       2.00000        -391.031933       -10640.52028
      8       2.00000        -101.934398        -2773.77611
      9       2.00000         -85.428534        -2324.62868
     10       2.00000         -85.428501        -2324.62778
     11       2.00000         -85.428500        -2324.62777
     12       2.00000         -66.528646        -1810.33658
     13       2.00000         -66.528646        -1810.33657
     14       2.00000         -66.528644        -1810.33652
     15       2.00000         -66.528621        -1810.33590
     16       2.00000         -66.528621        -1810.33590
     17       2.00000         -59.217085        -1611.37886
     18       2.00000         -59.217085        -1611.37886
     19       2.00000         -52.075545        -1417.04766
     20       2.00000         -52.075544        -1417.04766
     21       2.00000         -52.075517        -1417.04691
     22       2.00000         -52.075517        -1417.04691
     23       2.00000         -52.075517        -1417.04690
     24       2.00000         -52.075517        -1417.04690
     25       2.00000         -20.956821         -570.26412
     26       2.00000         -15.574607         -423.80662
     27       2.00000         -15.574490         -423.80343
     28       2.00000         -15.574490         -423.80343
     29       2.00000          -8.770478         -238.65684
     30       2.00000          -8.770478         -238.65684
     31       2.00000          -8.770427         -238.65546
     32       2.00000          -8.770339         -238.65307
     33       2.00000          -8.770339         -238.65307
     34       2.00000          -7.864263         -213.99747
     35       2.00000          -7.864263         -213.99747
     36       2.00000          -5.638712         -153.43716
     37       2.00000          -5.638712         -153.43715
     38       2.00000          -5.638146         -153.42175
     39       2.00000          -5.638146         -153.42175
     40       2.00000          -5.638146         -153.42175
     41       2.00000          -5.638146         -153.42175
     42       2.00000          -2.920531          -79.47168
     43       2.00000          -1.970696          -53.62538
     44       2.00000          -1.970696          -53.62538
     45       2.00000          -1.970659          -53.62435
     46       2.00000          -1.970659          -53.62435
     47       2.00000          -1.970624          -53.62340
     48       2.00000          -1.970569          -53.62192
     49       2.00000          -1.969932          -53.60458
     50       2.00000          -1.969932          -53.60458
     51       2.00000          -1.969926          -53.60443
     52       2.00000          -1.969926          -53.60443
     53       2.00000          -1.613196          -43.89730
     54       2.00000          -1.605815          -43.69644
     55       2.00000          -1.605815          -43.69644
     56       2.00000          -1.235564          -33.62141
     57       2.00000          -1.235564          -33.62141
     58       2.00000          -1.235458          -33.61852
     59       2.00000          -1.235394          -33.61677
     60       2.00000          -1.235366          -33.61602
     61       2.00000          -1.235366          -33.61602
     62       2.00000          -1.234916          -33.60378
     63       2.00000          -0.769527          -20.93989
     64       2.00000          -0.725163          -19.73269
     65       2.00000          -0.453524          -12.34102
     66       2.00000          -0.308462           -8.39368
     67       2.00000          -0.302658           -8.23575
     68       2.00000          -0.302657           -8.23573
     69       2.00000          -0.261163           -7.10661
     70       2.00000          -0.261163           -7.10660
     71       2.00000          -0.239011           -6.50382
     72       0.00000          -0.111940           -3.04603
     73       0.00000          -0.111939           -3.04601
     74       0.00000          -0.108964           -2.96506
     75       0.00000          -0.108964           -2.96505
     76       0.00000          -0.047610           -1.29554
     77       0.00000           0.064435            1.75337
     78       0.00000           0.072441            1.97121
     79       0.00000           0.094795            2.57951
     80       0.00000           0.187919            5.11353
     81       0.00000           0.187922            5.11361
     82       0.00000           0.216694            5.89655
     83       0.00000           0.276001            7.51038
     84       0.00000           0.276003            7.51042
     85       0.00000           0.376141           10.23531
     86       0.00000           0.384906           10.47383
     87       0.00000           0.421339           11.46523
     88       0.00000           0.421341           11.46527
     89       0.00000           0.426884           11.61612
     90       0.00000           0.426887           11.61618
     91       0.00000           0.465409           12.66442

  What follows are estimated values for band gap, HOMO, LUMO, etc.
  | They are estimated on a discrete k-point grid and not necessarily exact.
  | For converged numbers, create a DOS and/or band structure plot on a denser k-grid.

  Highest occupied state (VBM) at     -5.99834483 eV (relative to internal zero)
  | Occupation number:      2.00000000
  | K-point:      11 at    0.333333    0.333333    0.000000 (in units of recip. lattice)

  Lowest unoccupied state (CBM) at    -4.40727296 eV (relative to internal zero)
  | Occupation number:      0.00000000
  | K-point:      20 at    0.833333    0.833333    0.000000 (in units of recip. lattice)

  ESTIMATED overall HOMO-LUMO gap:      1.59107188 eV between HOMO at k-point 11 and LUMO at k-point 20
  | This appears to be an indirect band gap.
  | Smallest direct gap :      1.74767708 eV for k_point 11 at    0.833333    0.833333    0.000000 (in units of recip. lattice)
  The gap value is above 0.2 eV. Unless you are using a very sparse k-point grid,
  this system is most likely an insulator or a semiconductor.

  Total energy components:
  | Sum of eigenvalues            :      -13282.49377773 Ha     -361435.04530458 eV
  | XC energy correction          :        -503.86780068 Ha      -13710.94046161 eV
  | XC potential correction       :         657.80431286 Ha       17899.76608294 eV
  | Free-atom electrostatic energy:       -8398.26766151 Ha     -228528.49047133 eV
  | Hartree energy correction     :          -0.69904226 Ha         -19.02190769 eV
  | vdW energy correction         :           0.00000000 Ha           0.00000000 eV
  | Entropy correction            :          -0.00000000 Ha          -0.00000000 eV
  | ---------------------------
  | Total energy                  :      -21527.52396932 Ha     -585793.73206226 eV
  | Total energy, T -> 0          :      -21527.52396932 Ha     -585793.73206226 eV  <-- do not rely on this value for anything but (periodic) metals
  | Electronic free energy        :      -21527.52396932 Ha     -585793.73206226 eV

  Derived energy quantities:
  | Kinetic energy                :       23361.72857980 Ha      635704.97896951 eV
  | Electrostatic energy          :      -44385.38474844 Ha    -1207787.77057017 eV
  | Energy correction for multipole
  | error in Hartree potential    :          -0.00000419 Ha          -0.00011401 eV
  | Sum of eigenvalues per atom                           :     -120478.34843486 eV
  | Total energy (T->0) per atom                          :     -195264.57735409 eV  <-- do not rely on this value for anything but (periodic) metals
  | Electronic free energy per atom                       :     -195264.57735409 eV

  Self-consistency convergence accuracy:
  | Change of charge density      :  0.1057E+00
  | Change of sum of eigenvalues  :  0.1910E+02 eV
  | Change of total energy        :  0.4761E-01 eV

  End self-consistency iteration #     1       :  max(cpu_time)    wall_clock(cpu1)
  | Time for this iteration                    :        1.926 s           1.927 s
  | Charge density update                      :        1.021 s           1.020 s
  | Density mixing & preconditioning           :        0.063 s           0.063 s
  | Hartree multipole update                   :        0.002 s           0.002 s
  | Hartree multipole summation                :        0.285 s           0.285 s
  | Integration                                :        0.547 s           0.547 s
  | Solution of K.-S. eqns.                    :        0.008 s           0.009 s
  | Total energy evaluation                    :        0.000 s           0.000 s

  Partial memory accounting:
  | Current value for overall tracked memory usage:
  |   Minimum:        3.069 MB (on task  0)
  |   Maximum:        3.254 MB (on task  1)
  |   Average:        3.223 MB
  | Peak value for overall tracked memory usage:
  |   Minimum:       15.571 MB (on task  4 after allocating gradient_basis_wave)
  |   Maximum:       18.001 MB (on task  8 after allocating gradient_basis_wave)
  |   Average:       16.677 MB
  | Largest tracked array allocation so far:
  |   Minimum:        6.016 MB (hamiltonian_shell on task  4)
  |   Maximum:        7.645 MB (hamiltonian_shell on task  8)
  |   Average:        6.773 MB
  Note:  These values currently only include a subset of arrays which are explicitly tracked.
  The "true" memory usage will be greater.
------------------------------------------------------------

------------------------------------------------------------
          Begin self-consistency iteration #    2

  Date     :  20200403, Time     :  081309.760
------------------------------------------------------------
  Evaluating new KS density using the density matrix
  Evaluating density matrix
  Time summed over all CPUs for getting density from density matrix: real work       23.513 s, elapsed       24.120 s
  Integration grid: deviation in total charge (<rho> - N_e) =  -3.154810E-12
  Pulay mixing of updated and previous charge densities.
  Renormalizing the density to the exact electron count on the 3D integration grid.
  | Formal number of electrons (from input files) :     142.0000000000
  | Integrated number of electrons on 3D grid     :     141.9984803326
  | Charge integration error                      :      -0.0015196674
  | Normalization factor for density and gradient :       1.0000107020

  Evaluating partitioned Hartree potential by multipole expansion.
  | Original multipole sum: apparent total charge =   0.538373E-13
  | Sum of charges compensated after spline to logarithmic grids =   0.787024E-07
  | Analytical far-field extrapolation by fixed multipoles:
  | Hartree multipole sum: apparent total charge =   0.539023E-13
  Summing up the Hartree potential.
  Time summed over all CPUs for potential: real work        7.187 s, elapsed        7.385 s
  | RMS charge density error from multipole expansion :   0.184731E-02
  | Average real-space part of the electrostatic potential :      0.00231102 eV

  Integrating Hamiltonian matrix: batch-based integration.
  Time summed over all CPUs for integration: real work       12.666 s, elapsed       12.913 s

  Updating Kohn-Sham eigenvalues and eigenvectors using ELSI and the (modified) LAPACK eigensolver.

  Obtaining occupation numbers and chemical potential using ELSI.
  | Chemical potential (Fermi level):    -4.81940970 eV
  What follows are estimated values for band gap, HOMO, LUMO, etc.
  | They are estimated on a discrete k-point grid and not necessarily exact.
  | For converged numbers, create a DOS and/or band structure plot on a denser k-grid.

  Highest occupied state (VBM) at     -4.86571995 eV (relative to internal zero)
  | Occupation number:      2.00000000
  | K-point:      11 at    0.333333    0.333333    0.000000 (in units of recip. lattice)

  Lowest unoccupied state (CBM) at    -3.46523679 eV (relative to internal zero)
  | Occupation number:      0.00000000
  | K-point:      20 at    0.833333    0.833333    0.000000 (in units of recip. lattice)

  ESTIMATED overall HOMO-LUMO gap:      1.40048316 eV between HOMO at k-point 11 and LUMO at k-point 20
  | This appears to be an indirect band gap.
  | Smallest direct gap :      1.83053519 eV for k_point 11 at    0.833333    0.833333    0.000000 (in units of recip. lattice)
  The gap value is above 0.2 eV. Unless you are using a very sparse k-point grid,
  this system is most likely an insulator or a semiconductor.

  Total energy components:
  | Sum of eigenvalues            :      -13278.17401595 Ha     -361317.49860604 eV
  | XC energy correction          :        -503.84469165 Ha      -13710.31163270 eV
  | XC potential correction       :         657.77328314 Ha       17898.92172143 eV
  | Free-atom electrostatic energy:       -8398.26766151 Ha     -228528.49047133 eV
  | Hartree energy correction     :          -5.00658369 Ha        -136.23607369 eV
  | vdW energy correction         :           0.00000000 Ha           0.00000000 eV
  | Entropy correction            :          -0.00000000 Ha          -0.00000000 eV
  | ---------------------------
  | Total energy                  :      -21527.51966966 Ha     -585793.61506232 eV
  | Total energy, T -> 0          :      -21527.51966966 Ha     -585793.61506232 eV  <-- do not rely on this value for anything but (periodic) metals
  | Electronic free energy        :      -21527.51966966 Ha     -585793.61506232 eV

  Derived energy quantities:
  | Kinetic energy                :       23361.45223944 Ha      635697.45936577 eV
  | Electrostatic energy          :      -44385.12721745 Ha    -1207780.76279540 eV
  | Energy correction for multipole
  | error in Hartree potential    :          -0.00002074 Ha          -0.00056447 eV
  | Sum of eigenvalues per atom                           :     -120439.16620201 eV
  | Total energy (T->0) per atom                          :     -195264.53835411 eV  <-- do not rely on this value for anything but (periodic) metals
  | Electronic free energy per atom                       :     -195264.53835411 eV

  Self-consistency convergence accuracy:
  | Change of charge density      :  0.1012E+00
  | Change of sum of eigenvalues  :  0.1175E+03 eV
  | Change of total energy        :  0.1170E+00 eV

  End self-consistency iteration #     2       :  max(cpu_time)    wall_clock(cpu1)
  | Time for this iteration                    :        1.949 s           1.948 s
  | Charge density update                      :        1.011 s           1.010 s
  | Density mixing & preconditioning           :        0.059 s           0.060 s
  | Hartree multipole update                   :        0.002 s           0.002 s
  | Hartree multipole summation                :        0.323 s           0.324 s
  | Integration                                :        0.544 s           0.544 s
  | Solution of K.-S. eqns.                    :        0.008 s           0.008 s
  | Total energy evaluation                    :        0.000 s           0.000 s

  Partial memory accounting:
  | Current value for overall tracked memory usage:
  |   Minimum:        3.070 MB (on task  0)
  |   Maximum:        3.255 MB (on task  1)
  |   Average:        3.224 MB
  | Peak value for overall tracked memory usage:
  |   Minimum:       15.571 MB (on task  4 after allocating gradient_basis_wave)
  |   Maximum:       18.001 MB (on task  8 after allocating gradient_basis_wave)
  |   Average:       16.677 MB
  | Largest tracked array allocation so far:
  |   Minimum:        6.016 MB (hamiltonian_shell on task  4)
  |   Maximum:        7.645 MB (hamiltonian_shell on task  8)
  |   Average:        6.773 MB
  Note:  These values currently only include a subset of arrays which are explicitly tracked.
  The "true" memory usage will be greater.
------------------------------------------------------------

------------------------------------------------------------
          Begin self-consistency iteration #    3

  Date     :  20200403, Time     :  081311.709
------------------------------------------------------------
  Evaluating new KS density using the density matrix
  Evaluating density matrix
  Time summed over all CPUs for getting density from density matrix: real work       23.533 s, elapsed       24.055 s
  Integration grid: deviation in total charge (<rho> - N_e) =  -3.183231E-12
  Pulay mixing of updated and previous charge densities.
  Renormalizing the density to the exact electron count on the 3D integration grid.
  | Formal number of electrons (from input files) :     142.0000000000
  | Integrated number of electrons on 3D grid     :     141.9987894215
  | Charge integration error                      :      -0.0012105785
  | Normalization factor for density and gradient :       1.0000085253

  Evaluating partitioned Hartree potential by multipole expansion.
  | Original multipole sum: apparent total charge =  -0.429415E-13
  | Sum of charges compensated after spline to logarithmic grids =   0.964892E-07
  | Analytical far-field extrapolation by fixed multipoles:
  | Hartree multipole sum: apparent total charge =  -0.429200E-13
  Summing up the Hartree potential.
  Time summed over all CPUs for potential: real work        7.414 s, elapsed        7.616 s
  | RMS charge density error from multipole expansion :   0.334087E-02
  | Average real-space part of the electrostatic potential :      0.00391637 eV

[...]
  Evaluating density matrix

  Entering Libmbd.
  Libmbd: VdW method: mbd-nl
  Libmbd: Evaluating kinetic energy density...

  Evaluating density matrix

  Libmbd: Performing Hirshfeld analysis...
  Libmbd: Calculating MBD energy...
  Libmbd: Evaluated energy: -0.28900799834361460E-001

  Total energy components:
  | Sum of eigenvalues            :      -13279.86273829 Ha     -361363.45107889 eV
  | XC energy correction          :        -503.84833730 Ha      -13710.41083591 eV
  | XC potential correction       :         657.77603975 Ha       17898.99673248 eV
  | Free-atom electrostatic energy:       -8398.06496947 Ha     -228522.97494028 eV
  | Hartree energy correction     :          -3.51712174 Ha         -95.70575197 eV
  | vdW energy correction         :          -0.02890080 Ha          -0.78643078 eV
  | Entropy correction            :          -0.00000000 Ha          -0.00000000 eV
  | ---------------------------
  | Total energy                  :      -21527.54602785 Ha     -585794.33230534 eV
  | Total energy, T -> 0          :      -21527.54602785 Ha     -585794.33230534 eV  <-- do not rely on this value for anything but (periodic) metals
  | Electronic free energy        :      -21527.54602785 Ha     -585794.33230534 eV

  Derived energy quantities:
  | Kinetic energy                :       23361.18282332 Ha      635690.12818018 eV
  | Electrostatic energy          :      -44384.85161308 Ha    -1207773.26321883 eV
  | Energy correction for multipole
  | error in Hartree potential    :          -0.00001477 Ha          -0.00040203 eV
  | Sum of eigenvalues per atom                           :     -120454.48369296 eV
  | Total energy (T->0) per atom                          :     -195264.77743511 eV  <-- do not rely on this value for anything but (periodic) metals
  | Electronic free energy per atom                       :     -195264.77743511 eV

  atomic forces [eV/Ang]:
  -----------------------
  atom #    1
   Hellmann-Feynman              :  0.962438E-04 -0.496272E-03  0.398715E+02
   Ionic forces                  :  0.000000E+00  0.000000E+00  0.000000E+00
   Multipole                     : -0.406870E-05  0.311626E-04  0.695651E-01
   Pulay + GGA                   : -0.432875E-03  0.309079E-02 -0.398674E+02
   Van der Waals                 :  0.366070E-03 -0.219157E-03 -0.787568E-01
   ----------------------------------------------------------------
   Total forces(   1)            :  0.253701E-04  0.240653E-02 -0.507180E-02
  atom #    2
   Hellmann-Feynman              :  0.110555E-01 -0.471214E-01  0.118000E-01
   Ionic forces                  :  0.000000E+00  0.000000E+00  0.000000E+00
   Multipole                     : -0.265415E-05 -0.439013E-03 -0.783605E-04
   Pulay + GGA                   : -0.998889E-02  0.427528E-01 -0.105525E-01
   Van der Waals                 : -0.733913E-03  0.436493E-03 -0.102871E-05
   ----------------------------------------------------------------
   Total forces(   2)            :  0.330070E-03 -0.437113E-02  0.116809E-02
  atom #    3
   Hellmann-Feynman              :  0.111469E-03 -0.483786E-03 -0.398744E+02
   Ionic forces                  :  0.000000E+00  0.000000E+00  0.000000E+00
   Multipole                     : -0.702652E-05  0.280606E-04 -0.695820E-01
   Pulay + GGA                   : -0.844391E-03  0.266927E-02  0.398691E+02
   Van der Waals                 :  0.367843E-03 -0.217336E-03  0.787578E-01
   ----------------------------------------------------------------
   Total forces(   3)            : -0.372105E-03  0.199621E-02  0.390537E-02


  Analytical stress tensor components [eV]         xx                  yy                  zz                  xy                  xz                  yz
  -----------------------------------------------------------------------------------------------------------------------------------------------------------
    Nuclear Hellmann-Feynman      :     0.1708966221E+02    0.1711375061E+02   -0.9132782517E+02    0.2840693027E-02   -0.1289231136E-02   -0.1330749361E-02
    Multipole Hellmann-Feynman    :    -0.5208067042E+02   -0.5202895049E+02   -0.1643876807E+03    0.5811209168E-02   -0.2460878495E-02   -0.2539847049E-02
    On-site Multipole corrections :    -0.5445071718E+01   -0.5445450719E+01   -0.5445177722E+01    0.4838043903E-07   -0.2830622272E-09    0.3610203488E-08
    Strain deriv. of the orbitals :     0.3960110197E+02    0.3953048065E+02    0.2610008048E+03   -0.8231219774E-02    0.3076087039E-02    0.3173348077E-02
    vdW correction   :     0.8341606703E+00    0.8417908121E+00    0.2659956841E+00    0.6579677312E-02    0.2965638158E-05    0.3093879879E-05
  -----------------------------------------------------------------------------------------------------------------------------------------------------------
  Sum of all contributions        :    -0.8172880388E-03    0.1162086489E-01    0.1061169317E+00    0.7000408113E-02   -0.6710572365E-03   -0.6941508431E-03

  +-------------------------------------------------------------------+
  |              Analytical stress tensor - Symmetrized               |
  |                  Cartesian components [eV/A**3]                   |
  +-------------------------------------------------------------------+
  |                x                y                z                |
  |                                                                   |
  |  x        -0.00000085       0.00000728      -0.00000070           |
  |  y         0.00000728       0.00001209      -0.00000072           |
  |  z        -0.00000070      -0.00000072       0.00011042           |
  |                                                                   |
  |  Pressure:      -0.00004055   [eV/A**3]                           |
  |                                                                   |
  +-------------------------------------------------------------------+

 * Warning: Stress tensor is anisotropic. Be aware that pressure is an isotropic quantity.


  Leaving Libmbd.

  Timings for VdW correction (Tkatchenko-Scheffler 2009 or later):
  | CPU time:        1.516 s, Wall clock time:        1.516 s.
  Removing unitary transformations (pure translations, rotations) from forces on atoms.
  Atomic forces before filtering:
  | Net force on center of mass :  -0.166646E-04  0.316045E-04  0.165129E-05 eV/A
  Atomic forces after filtering:
  | Net force on center of mass :   0.435562E-19 -0.348449E-18  0.000000E+00 eV/A

  Energy and forces in a compact form:
  | Total energy uncorrected      :         -0.585794332305343E+06 eV
  | Total energy corrected        :         -0.585794332305343E+06 eV  <-- do not rely on this value for anything but (periodic) metals
  | Electronic free energy        :         -0.585794332305343E+06 eV
  Total atomic forces (unitary forces cleaned) [eV/Ang]:
  |    1          0.309249518758554E-04          0.239599304210694E-02         -0.507235360030254E-02
  |    2          0.335625221178417E-03         -0.438166504766130E-02          0.116753557083994E-02
  |    3         -0.366550173054272E-03          0.198567200555435E-02          0.390481802946260E-02

  ------------------------------------ 
  Start decomposition of the XC Energy 
  ------------------------------------ 
  X and C from original XC functional choice 
  Hartree-Fock Energy :          0.000000000 Ha              0.000000000 eV
  X Energy            :       -495.977463008 Ha         -13496.233449238 eV
  C Energy            :         -7.870874291 Ha           -214.177386674 eV
  Total XC Energy     :       -503.848337298 Ha         -13710.410835912 eV
  ------------------------------------ 
  LDA X and C from self-consistent density 
  X Energy LDA        :       -473.764450280 Ha         -12891.786619002 eV
  C Energy LDA        :        -13.825925023 Ha           -376.222561858 eV
  ------------------------------------ 
  End decomposition of the XC Energy 
  ------------------------------------ 

------------------------------------------------------------
  Relaxation / MD: End force evaluation.       :  max(cpu_time)    wall_clock(cpu1)
  | Time for this force evaluation             :       53.474 s          53.535 s

------------------------------------------------------------
  Geometry optimization: Attempting to predict improved coordinates.

  +-------------------------------------------------------------------+
  | Generalized derivatives on lattice vectors [eV/A]                 |
  +-------------------------------------------------------------------+
  |lattice_vector       0.00098054       0.00416911      -0.00032594  |
  |lattice_vector       0.00245814       0.00408058      -0.00024375  |
  |lattice_vector      -0.00000654      -0.00000676       0.00103409  |
  +-------------------------------------------------------------------+
  | Forces on lattice vectors cleaned from atomic contributions [eV/A]|
  +-------------------------------------------------------------------+
  |lattice_vector      -0.00098054      -0.00416911       0.00032594  |
  |lattice_vector      -0.00245814      -0.00408058       0.00024375  |
  |lattice_vector       0.00000654       0.00000676      -0.00103409  |
  +-------------------------------------------------------------------+
  Symmetrized total atomic cartesian forces [eV/Ang]:
  |   1     0.3092495188E-04     0.2395993042E-02    -0.5072353600E-02
  |   2     0.3356252212E-03    -0.4381665048E-02     0.1167535571E-02
  |   3    -0.3665501731E-03     0.1985672006E-02     0.3904818029E-02
  +-------------------------------------------------------------------+
  | Symmetrized forces on lattice vectors cleaned from symmetrized
  | atomic contributions [eV/A]|
  +-------------------------------------------------------------------+
  |lattice_vector      -0.00164268       0.00000000       0.00000000  |
  |lattice_vector       0.00082134      -0.00142260       0.00000000  |
  |lattice_vector       0.00000000       0.00000000      -0.00103409  |
  +-------------------------------------------------------------------+
  Removing unitary transformations (pure translations, rotations) from forces on atoms.
  Atomic forces before filtering:
  | Net force on center of mass :   0.000000E+00 -0.696899E-18  0.000000E+00 eV/A
  Atomic forces after filtering:
  | Net force on center of mass :   0.000000E+00  0.000000E+00  0.000000E+00 eV/A
  Net remaining forces (excluding translations, rotations) in present geometry:
  || Forces on atoms   || =   0.507235E-02 eV/A.
  || Forces on lattice || =   0.164268E-02 eV/A^3.
  Maximum force component is  0.507235E-02 eV/A.
  Present geometry is converged.

  Symmetry-reduced parameters:
  | atomic   1          0.903279338585037E-04
  | atomic   2          0.183093533373041E-03
  | atomic   3          0.500233917633708E+00
  | atomic   4          0.333463037855212E+00
  | atomic   5          0.666950077391265E+00
  | atomic   6          0.483777368554458E+00
  | atomic   7          0.113388905874518E-03
  | atomic   8          0.200338465266146E-03
  | atomic   9          0.467321611336838E+00
  | lattice  1          0.328840769148657E+01
  | lattice  2          0.102618447783282E+03
  Symmetry-reduced forces:
  | atomic   1          0.101693849607415E-03
  | atomic   2          0.677256891898885E-02
  | atomic   3         -0.520517053070989E+00
  | atomic   4          0.110367255877999E-02
  | atomic   5         -0.130301374192435E-01
  | atomic   6          0.119810688011363E+00
  | atomic   7         -0.120536640838740E-02
  | atomic   8          0.625756850025466E-02
  | atomic   9          0.400706365059626E+00
  | lattice  1         -0.328535201994264E-02
  | lattice  2         -0.103409215408506E-02
------------------------------------------------------------
  Final atomic structure:
                         x [A]             y [A]             z [A]
  lattice_vector         3.28840769        0.00000000        0.00000000
  lattice_vector        -1.64420385        2.84784460        0.00000000
  lattice_vector         0.00000000        0.00000000      102.61844778

            atom        -0.00000401        0.00052142      -51.28521963  Se
            atom         1.64416438       -0.94847442       49.64448263  W
            atom         0.00004347        0.00057053       47.95581837  Se

  Fractional coordinates:
                         L1                L2                L3
       atom_frac         0.00009033        0.00018309       -0.49976608  Se
       atom_frac         0.33346304       -0.33304992        0.48377737  W
       atom_frac         0.00011339        0.00020034        0.46732161  Se
------------------------------------------------------------

------------------------------------------------------------------------------
  Final output of selected total energy values:

  The following output summarizes some interesting total energy values
  at the end of a run (AFTER all relaxation, molecular dynamics, etc.).

  | Total energy of the DFT / Hartree-Fock s.c.f. calculation      :        -585794.332305343 eV
  | Final zero-broadening corrected energy (caution - metals only) :        -585794.332305343 eV
  | For reference only, the value of 1 Hartree used in FHI-aims is :             27.211384500 eV
  | For reference only, the overall average (free atom contribution
  | + realspace contribution) of the electrostatic potential after
  | s.c.f. convergence is                                          :             -1.318347329 eV

  Before relying on these values, please be sure to understand exactly which
  total energy value is referred to by a given number. Different objects may
  all carry the same name 'total energy'. Definitions:

  Total energy of the DFT / Hartree-Fock s.c.f. calculation:
  | Note that this energy does not include ANY quantities calculated after the
  | s.c.f. cycle, in particular not ANY RPA, MP2, etc. many-body perturbation terms.

  Final zero-broadening corrected energy:
  | For metallic systems only, a broadening of the occupation numbers at the Fermi
  | level can be extrapolated back to zero broadening by an electron-gas inspired
  | formula. For all systems that are not real metals, this value can be
  | meaningless and should be avoided.

------------------------------------------------------------------------------
  Methods described in the following list of references were used in this FHI-aims run.
  If you publish the results, please make sure to cite these reference if they apply.
  FHI-aims is an academic code, and for our developers (often, Ph.D. students
  and postdocs), scientific credit in the community is essential.
  Thank you for helping us!

  For any use of FHI-aims, please cite:

    Volker Blum, Ralf Gehrke, Felix Hanke, Paula Havu, Ville Havu,
    Xinguo Ren, Karsten Reuter, and Matthias Scheffler
    'Ab initio molecular simulations with numeric atom-centered orbitals'
    Computer Physics Communications 180, 2175-2196 (2009)
    http://dx.doi.org/10.1016/j.cpc.2009.06.022


  For the analytical stress tensor used in your run, please cite:

    Franz Knuth, Christian Carbogno, Viktor Atalla, Volker Blum, Matthias Scheffler
    'All-electron formalism for total energy strain derivatives and
    stress tensor components for numeric atom-centered orbitals'
    Computer Physics Communications 190, 33-50 (2015).
    http://dx.doi.org/10.1016/j.cpc.2015.01.003


  The provided symmetry information was generated with SPGlib:

    Atsushi Togo, Yusuke Seto, Dimitar Pashov
    SPGlib 1.7.3 obtained from http://spglib.sourceforge.net
    Copyright (C) 2008 Atsushi Togo


  The ELSI infrastructure was used in your run to solve the Kohn-Sham electronic structure.
  Please check out http://elsi-interchange.org to learn more.
  If scalability is important for your project, please acknowledge ELSI by citing:

    V. W-z. Yu, F. Corsetti, A. Garcia, W. P. Huhn, M. Jacquelin, W. Jia,
    B. Lange, L. Lin, J. Lu, W. Mi, A. Seifitokaldani, A. Vazquez-Mayagoitia,
    C. Yang, H. Yang, and V. Blum
    'ELSI: A unified software interface for Kohn-Sham electronic structure solvers'
    Computer Physics Communications 222, 267-285 (2018).
    http://dx.doi.org/10.1016/j.cpc.2017.09.007


  For the real-space grid partitioning and parallelization used in this calculation, please cite:

    Ville Havu, Volker Blum, Paula Havu, and Matthias Scheffler,
    'Efficient O(N) integration for all-electron electronic structure calculation'
    'using numerically tabulated basis functions'
    Journal of Computational Physics 228, 8367-8379 (2009).
    http://dx.doi.org/10.1016/j.jcp.2009.08.008

  Of course, there are many other important community references, e.g., those cited in the
  above references. Our list is limited to references that describe implementations in the
  FHI-aims code. The reason is purely practical (length of this list) - please credit others as well.

 * A warning was issued further up regarding the CPU load.
   Some CPUs do not participate in the eigenvalue solution.
   In corner cases, this may be the correct behavior. Otherwise,
   consider using a scalapack/elpa version of the code for a parallel treatment.

------------------------------------------------------------
          Leaving FHI-aims.
          Date     :  20200403, Time     :  083934.913

          Computational steps:
          | Number of self-consistency cycles          :          356
          | Number of SCF (re)initializations          :           29
          | Number of relaxation steps                 :           28

          Detailed time accounting                     :  max(cpu_time)    wall_clock(cpu1)
          | Total time                                 :     1590.638 s        1591.565 s
          | Preparation time                           :        0.715 s           0.878 s
          | Boundary condition initalization           :       32.362 s          32.347 s
          | Grid partitioning                          :       14.727 s          14.727 s
          | Preloading free-atom quantities on grid    :        4.374 s           4.376 s
          | Free-atom superposition energy             :        0.590 s           0.589 s
          | Total time for integrations                :      211.534 s         211.496 s
          | Total time for solution of K.-S. equations :        3.016 s           3.099 s
          | Total time for EV reorthonormalization     :        0.063 s           0.001 s
          | Total time for density & force components  :     1064.848 s        1064.887 s
          | Total time for mixing & preconditioning    :       20.710 s          20.746 s
          | Total time for Hartree multipole update    :        0.864 s           0.853 s
          | Total time for Hartree multipole sum       :      190.940 s         190.980 s
          | Total time for total energy evaluation     :        0.080 s           0.088 s
          | Total time for scaled ZORA corrections     :        0.000 s           0.000 s
          | Total time for vdW correction              :       43.110 s          43.127 s

          Partial memory accounting:
          | Residual value for overall tracked memory usage across tasks:     0.000000 MB (should be 0.000000 MB)
          | Peak values for overall tracked memory usage:
          |   Minimum:       38.603 MB (on task 17 after allocating d_wave)
          |   Maximum:       42.745 MB (on task 13 after allocating d_wave)
          |   Average:       40.358 MB
          | Largest tracked array allocation:
          |   Minimum:        8.381 MB (hessian_basis_wave on task 17)
          |   Maximum:        9.319 MB (hessian_basis_wave on task 13)
          |   Average:        8.821 MB
          Note:  These values currently only include a subset of arrays which are explicitly tracked.
          The "true" memory usage will be greater.

          Have a nice day.
------------------------------------------------------------
