------------------------------------------------------------
          Invoking FHI-aims ...

          When using FHI-aims, please cite the following reference:

          Volker Blum, Ralf Gehrke, Felix Hanke, Paula Havu,
          Ville Havu, Xinguo Ren, Karsten Reuter, and Matthias Scheffler,
          'Ab Initio Molecular Simulations with Numeric Atom-Centered Orbitals',
          Computer Physics Communications 180, 2175-2196 (2009)

          For any questions about FHI-aims, please visit the aimsclub website
          with its forums and wiki. Contributions to both the forums and the
          wiki are warmly encouraged - they are for you, and everyone is welcome there.

------------------------------------------------------------



  Date     :  20200319, Time     :  194129.273
  Time zero on CPU 1             :   0.945210000000000E-01  s.
  Internal wall clock time zero  :           353878889.273  s.

  FHI-aims created a unique identifier for this run for later identification
  aims_uuid : ECA4D889-EC09-40ED-AB80-06C521194027

  Build configuration of the current instance of FHI-aims
  -------------------------------------------------------
  FHI-aims version      : 200112
  Commit number         : 23daeca3f
  CMake host system     : Linux-3.10.0-693.21.1.el7.x86_64
  CMake version         : 3.13.3
  Fortran compiler      : /sw/installed/impi/2018.4.274-iccifort-2019.1.144-GCC-8.2.0-2.31.1/bin64/mpiifort (Intel) version 19.0.0.20181018
  Fortran compiler flags: -O3 -ip -fp-model precise
  C compiler            : /sw/installed/impi/2018.4.274-iccifort-2019.1.144-GCC-8.2.0-2.31.1/bin64/mpiicc (Intel) version 19.0.0.20181018
  C compiler flags      : -O3 -ip -fp-model precise
  Architecture          :
  Using MPI
  Using Scalapack
  Using C files
  Using LibXC
  Using SPGlib
  Using i-PI
  Using RLSY
  Linking against: /sw/installed/imkl/2019.1.144-iimpi-2019a/mkl/lib/intel64/libmkl_intel_lp64.so
                   /sw/installed/imkl/2019.1.144-iimpi-2019a/mkl/lib/intel64/libmkl_sequential.so
                   /sw/installed/imkl/2019.1.144-iimpi-2019a/mkl/lib/intel64/libmkl_core.so
                   /sw/installed/imkl/2019.1.144-iimpi-2019a/mkl/lib/intel64/libmkl_blacs_intelmpi_lp64.so
                   /sw/installed/imkl/2019.1.144-iimpi-2019a/mkl/lib/intel64/libmkl_scalapack_lp64.so

  Using       24 parallel tasks.
  Task        0 on host taurusi6510.taurus.hrsk.tu-dresden.de reporting.
  Task        1 on host taurusi6510.taurus.hrsk.tu-dresden.de reporting.
  Task        2 on host taurusi6510.taurus.hrsk.tu-dresden.de reporting.
  Task        3 on host taurusi6510.taurus.hrsk.tu-dresden.de reporting.
  Task        4 on host taurusi6510.taurus.hrsk.tu-dresden.de reporting.
  Task        5 on host taurusi6510.taurus.hrsk.tu-dresden.de reporting.
  Task        6 on host taurusi6510.taurus.hrsk.tu-dresden.de reporting.
  Task        7 on host taurusi6510.taurus.hrsk.tu-dresden.de reporting.
  Task        8 on host taurusi6510.taurus.hrsk.tu-dresden.de reporting.
  Task        9 on host taurusi6510.taurus.hrsk.tu-dresden.de reporting.
  Task       10 on host taurusi6510.taurus.hrsk.tu-dresden.de reporting.
  Task       11 on host taurusi6510.taurus.hrsk.tu-dresden.de reporting.
  Task       12 on host taurusi6510.taurus.hrsk.tu-dresden.de reporting.
  Task       13 on host taurusi6510.taurus.hrsk.tu-dresden.de reporting.
  Task       14 on host taurusi6510.taurus.hrsk.tu-dresden.de reporting.
  Task       15 on host taurusi6510.taurus.hrsk.tu-dresden.de reporting.
  Task       16 on host taurusi6510.taurus.hrsk.tu-dresden.de reporting.
  Task       17 on host taurusi6510.taurus.hrsk.tu-dresden.de reporting.
  Task       18 on host taurusi6510.taurus.hrsk.tu-dresden.de reporting.
  Task       19 on host taurusi6510.taurus.hrsk.tu-dresden.de reporting.
  Task       20 on host taurusi6510.taurus.hrsk.tu-dresden.de reporting.
  Task       21 on host taurusi6510.taurus.hrsk.tu-dresden.de reporting.
  Task       22 on host taurusi6510.taurus.hrsk.tu-dresden.de reporting.
  Task       23 on host taurusi6510.taurus.hrsk.tu-dresden.de reporting.

  Performing system and environment tests:
  | Environment variable OMP_NUM_THREADS correctly set to 1.
  | Maximum stacksize for task 0: unlimited
  | Maximum stacksize for task 1: unlimited
  | Maximum stacksize for task 2: unlimited
  | Maximum stacksize for task 3: unlimited
  | Maximum stacksize for task 4: unlimited
  | Maximum stacksize for task 5: unlimited
  | Maximum stacksize for task 6: unlimited
  | Maximum stacksize for task 7: unlimited
  | Maximum stacksize for task 8: unlimited
  | Maximum stacksize for task 9: unlimited
  | Maximum stacksize for task 10: unlimited
  | Maximum stacksize for task 11: unlimited
  | Maximum stacksize for task 12: unlimited
  | Maximum stacksize for task 13: unlimited
  | Maximum stacksize for task 14: unlimited
  | Maximum stacksize for task 15: unlimited
  | Maximum stacksize for task 16: unlimited
  | Maximum stacksize for task 17: unlimited
  | Maximum stacksize for task 18: unlimited
  | Maximum stacksize for task 19: unlimited
  | Maximum stacksize for task 20: unlimited
  | Maximum stacksize for task 21: unlimited
  | Maximum stacksize for task 22: unlimited
  | Maximum stacksize for task 23: unlimited
  | Current stacksize for task 0: unlimited
  | Current stacksize for task 1: unlimited
  | Current stacksize for task 2: unlimited
  | Current stacksize for task 3: unlimited
  | Current stacksize for task 4: unlimited
  | Current stacksize for task 5: unlimited
  | Current stacksize for task 6: unlimited
  | Current stacksize for task 7: unlimited
  | Current stacksize for task 8: unlimited
  | Current stacksize for task 9: unlimited
  | Current stacksize for task 10: unlimited
  | Current stacksize for task 11: unlimited
  | Current stacksize for task 12: unlimited
  | Current stacksize for task 13: unlimited
  | Current stacksize for task 14: unlimited
  | Current stacksize for task 15: unlimited
  | Current stacksize for task 16: unlimited
  | Current stacksize for task 17: unlimited
  | Current stacksize for task 18: unlimited
  | Current stacksize for task 19: unlimited
  | Current stacksize for task 20: unlimited
  | Current stacksize for task 21: unlimited
  | Current stacksize for task 22: unlimited
  | Current stacksize for task 23: unlimited
  | Checking for scalapack...
  | Testing pdtran()...
  | All pdtran() tests passed.

  Obtaining array dimensions for all initial allocations:
  
  -----------------------------------------------------------------------
  Parsing control.in (first pass over file, find array dimensions only).
  The contents of control.in will be repeated verbatim below
  unless switched off by setting 'verbatim_writeout .false.' .
  in the first line of control.in .
  -----------------------------------------------------------------------
  
  #===============================================================================
  # FHI-aims file: ./control.in
  # Created using the Atomic Simulation Environment (ASE)
  # Thu Mar 19 17:13:23 2020
  #===============================================================================
  xc                                 pbe
  # include_spin_orbit
  # vdw_correction_hirshfeld
  # many_body_dispersion_nl 	 beta=0.81
  spin                               none
  k_grid 	 	 14 14 14
  relativistic                       atomic_zora scalar
  ### SCF settings
  adjust_scf 	 always 	 3
  # frozen_core_scf 	 .true.
  # charge_mix_param  0.05
  # occupation_type 	 gaussian 	 0.01
  # sc_accuracy_eev   1E-3 	 	 # sum of eigenvalues convergence
  # sc_accuracy_etot  1E-6 	 	 # total energy convergence
  # sc_accuracy_rho   1E-3 	 	 # electron density convergence
  # elsi_restart 	 read_and_write 	 1000
  #===============================================================================
  
  ################################################################################
  #
  #  FHI-aims code project
  # Volker Blum, Fritz Haber Institute Berlin, 2009
  #
  #  Suggested "tight" defaults for C atom (to be pasted into control.in file)
  #
  ################################################################################
    species        C
  #     global species definitions
      nucleus             6
      mass                12.0107
  #
      l_hartree           6
  #
      cut_pot             4.0  2.0  1.0
      basis_dep_cutoff    1e-4
  #
      radial_base         34 7.0
      radial_multiplier   2
      angular_grids specified
        division   0.2187   50
        division   0.4416  110
        division   0.6335  194
        division   0.7727  302
        division   0.8772  434
  #      division   0.9334  590
  #      division   0.9924  770
  #      division   1.0230  974
  #      division   1.5020 1202
  #     outer_grid  974
        outer_grid  434
  ################################################################################
  #
  #  Definition of "minimal" basis
  #
  ################################################################################
  #     valence basis states
      valence      2  s   2.
      valence      2  p   2.
  #     ion occupancy
      ion_occ      2  s   1.
      ion_occ      2  p   1.
  ################################################################################
  #
  #  Suggested additional basis functions. For production calculations,
  #  uncomment them one after another (the most important basis functions are
  #  listed first).
  #
  #  Constructed for dimers: 1.0 A, 1.25 A, 1.5 A, 2.0 A, 3.0 A
  #
  ################################################################################
  #  "First tier" - improvements: -1214.57 meV to -155.61 meV
       hydro 2 p 1.7
       hydro 3 d 6
       hydro 2 s 4.9
  #  "Second tier" - improvements: -67.75 meV to -5.23 meV
       hydro 4 f 9.8
       hydro 3 p 5.2
       hydro 3 s 4.3
       hydro 5 g 14.4
       hydro 3 d 6.2
  #  "Third tier" - improvements: -2.43 meV to -0.60 meV
  #     hydro 2 p 5.6
  #     hydro 2 s 1.4
  #     hydro 3 d 4.9
  #     hydro 4 f 11.2
  #  "Fourth tier" - improvements: -0.39 meV to -0.18 meV
  #     hydro 2 p 2.1
  #     hydro 5 g 16.4
  #     hydro 4 d 13.2
  #     hydro 3 s 13.6
  #     hydro 4 f 17.6
  #  Further basis functions - improvements: -0.08 meV and below
  #     hydro 3 s 2
  #     hydro 3 p 6
  #     hydro 4 d 20
  ################################################################################
  #
  # For methods that use the localized form of the "resolution of identity" for
  # the two-electron Coulomb operator (RI_method LVL), particularly Hartree-Fock and
  # hybrid density functional calculations, the highest accuracy can be obtained by
  # uncommenting the line beginning with "for_aux"  below, thus adding an extra g radial
  # function to the construction of the product basis set for the expansion.
  # See Ref. New J. Phys. 17, 093020 (2015) for more information, particularly Figs. 1 and 6.
  #
  ################################################################################
  #
  # for_aux hydro 5 g 6.0
  
  -----------------------------------------------------------------------
  Completed first pass over input file control.in .
  -----------------------------------------------------------------------
  
  
  -----------------------------------------------------------------------
  Parsing geometry.in (first pass over file, find array dimensions only).
  The contents of geometry.in will be repeated verbatim below
  unless switched off by setting 'verbatim_writeout .false.' .
  in the first line of geometry.in .
  -----------------------------------------------------------------------
  
  #=======================================================
  # FHI-aims file: ./geometry.in
  # Created using the Atomic Simulation Environment (ASE)
  # Thu Mar 19 17:13:23 2020
  #=======================================================
  lattice_vector 1.2300000000000000 -2.1304224899999999 0.0000000000000000
  lattice_vector 1.2300000000000000 2.1304224899999999 0.0000000000000000
  lattice_vector 0.0000000000000000 0.0000000000000000 6.7100000000000000
  atom_frac -0.0000000000000000 0.0000000000000000 0.2500000000000000 C
  atom_frac -0.0000000000000000 0.0000000000000000 -0.2500000000000000 C
  atom_frac 0.3333333333333333 -0.3333333333333333 0.2500000000000000 C
  atom_frac -0.3333333333333333 0.3333333333333333 -0.2500000000000000 C
  
  -----------------------------------------------------------------------
  Completed first pass over input file geometry.in .
  -----------------------------------------------------------------------
  

  Basic array size parameters:
  | Number of species                 :        1
  | Number of atoms                   :        4
  | Number of lattice vectors         :        3
  | Max. basis fn. angular momentum   :        4
  | Max. atomic/ionic basis occupied n:        2
  | Max. number of basis fn. types    :        2
  | Max. radial fns per species/type  :        8
  | Max. logarithmic grid size        :     1277
  | Max. radial integration grid size :       69
  | Max. angular integration grid size:      434
  | Max. angular grid division number :        8
  | Radial grid for Hartree potential :     1277
  | Number of spin channels           :        1

------------------------------------------------------------
          Reading file control.in.
------------------------------------------------------------
  XC: Using PBE gradient-corrected functionals.
  Spin treatment: No spin polarisation.
  Found k-point grid:        14        14        14
  Scalar relativistic treatment of kinetic energy: on-site free-atom approximation to ZORA.
  S.C.F. convergence parameters will be adjusted in iteration number     3 of each new s.c.f. cycle.
 
  Reading configuration options for species C                   .
  | Found nuclear charge :   6.0000
  | Found atomic mass :    12.0107000000000      amu
  | Found l_max for Hartree potential  :   6
  | Found cutoff potl. onset [A], width [A], scale factor :    4.00000    2.00000    1.00000
  | Threshold for basis-dependent cutoff potential is   0.100000E-03
  | Found data for basic radial integration grid :    34 points, outermost radius =    7.000 A
  | Found multiplier for basic radial grid :   2
  | Found angular grid specification: user-specified.
  | Specified grid contains     6 separate shells.
  | Check grid settings after all constraints further below.
  | Found free-atom valence shell :  2 s   2.000
  | Found free-atom valence shell :  2 p   2.000
  | No ionic wave fns used. Skipping ion_occ.
  | No ionic wave fns used. Skipping ion_occ.
  | Found hydrogenic basis function :  2 p   1.700
  | Found hydrogenic basis function :  3 d   6.000
  | Found hydrogenic basis function :  2 s   4.900
  | Found hydrogenic basis function :  4 f   9.800
  | Found hydrogenic basis function :  3 p   5.200
  | Found hydrogenic basis function :  3 s   4.300
  | Found hydrogenic basis function :  5 g  14.400
  | Found hydrogenic basis function :  3 d   6.200
  Species C                   : Missing cutoff potential type.
  Defaulting to exp(1/x)/(1-x)^2 type cutoff potential.
  Species C : No 'logarithmic' tag. Using default grid for free atom:
  | Default logarithmic grid data [bohr] : 0.1000E-03 0.1000E+03 0.1012E+01
  Species C : On-site basis accuracy parameter (for Gram-Schmidt orthonormalisation) not specified.
  Using default value basis_acc =  0.1000000E-03.
  Species C                   : Using default innermost maximum threshold i_radial=  2 for radial functions.
  Species C                   : Default cutoff onset for free atom density etc. : 0.40000000E+01 AA.
  Species C                   : Basic radial grid will be enhanced according to radial_multiplier =   2, to contain    69 grid points.
 
  Finished reading input file 'control.in'. Consistency checks are next.
 
  MPI_IN_PLACE appears to work with this MPI implementation.
  | Keeping use_mpi_in_place .true. (see manual).
  Target number of points in a grid batch is not set. Defaulting to  100
  Method for grid partitioning is not set. Defaulting to parallel hash+maxmin partitioning.
  Batch size limit is not set. Defaulting to    200
  By default, will store active basis functions for each batch.
  If in need of memory, prune_basis_once .false. can be used to disable this option.
  communication_type for Hartree potential was not specified.
  Defaulting to calc_hartree .
  Defaulting to Pulay charge density mixer.
  Pulay mixer: Number of relevant iterations not set.
  Defaulting to    8 iterations.
  Pulay mixer: Number of initial linear mixing iterations not set.
  Defaulting to    0 iterations.
  Work space size for distributed Hartree potential not set.
  Defaulting to   0.200000E+03 MB.
  Mixing parameter for charge density mixing has not been set.
  Using default: charge_mix_param =     0.0500.
  The mixing parameter will be adjusted in iteration number     3 of each s.c.f. cycle (i.e., each geometry step).
  Algorithm-dependent basis array size parameters:
  | n_max_pulay                         :        8
  Maximum number of self-consistency iterations not provided.
  Presetting  1000 iterations.
  Presetting      1001 iterations before the initial mixing cycle
  is restarted anyway using the sc_init_iter criterion / keyword.
  Presetting a factor      1.000 between actual scf density residual
  and density convergence criterion sc_accuracy_rho below which sc_init_iter
  takes no effect.
 * No s.c.f. convergence criteria (sc_accuracy_*) were provided in control.in.
 * The run will proceed with a reasonable default guess, but please check whether.
 * the s.c.f. cycles seem to take too much or too little time.
  Calculation of forces was not defined in control.in. No forces will be calculated.
  Geometry relaxation not requested: no relaxation will be performed.
 * Notice: The s.c.f. convergence criterion sc_accuracy_rho was not provided.
 * We used to stop in this case, and ask the user to provide reasonable
 * scf convergence criteria. However, this led some users to employ criteria
 * that led to extremely long run times, e.g., for simple relaxation.
 * We now preset a default value for sc_accuracy_rho if it is not set.
 * You may still wish to check if this setting is too tight or too loose for your needs.
 * Based on n_atoms, FHI-aims chose sc_accuracy_rho =  0.100000E-05 .
  No accuracy limit for integral partition fn. given. Defaulting to  0.1000E-14.
  No threshold value for u(r) in integrations given. Defaulting to  0.1000E-05.
  No occupation type (smearing scheme) given. Defaulting to Gaussian broadening, width =  0.1000E-01 eV.
  The width will be adjusted in iteration number     3 of each s.c.f. cycle (i.e., each geometry step).
  S.C.F. convergence parameters will be adjusted in iteration number     3 of the first full s.c.f. cycle only.
  No accuracy for occupation numbers given. Defaulting to  0.1000E-12.
  No threshold value for occupation numbers given. Defaulting to  0.0000E+00.
  No accuracy for fermi level given. Defaulting to  0.1000E-19.
  Maximum # of iterations to find E_F not set. Defaulting to  200.
  Preferred method for the eigenvalue solver ('KS_method') not specified in 'control.in'.
  Defaulting to serial version, LAPACK (via ELSI), since more k-points than CPUs available.
  Will not use alltoall communication since running on < 1024 CPUs.
  Threshold for basis singularities not set.
  Default threshold for basis singularities:  0.1000E-04
  partition_type (choice of integration weights) for integrals was not specified.
  | Using a version of the partition function of Stratmann and coworkers ('stratmann_sparse').
  | At each grid point, the set of atoms used to build the partition table is smoothly restricted to
  | only those atoms whose free-atom density would be non-zero at that grid point.
  Partitioning for Hartree potential was not defined. Using partition_type for integrals.
  | Adjusted default value of keyword multip_moments_threshold to:       0.10000000E-11
  | This value may affect high angular momentum components of the Hartree potential in periodic systems.
  Angular momentum expansion for Kerker preconditioner not set explicitly.
  | Using default value of   0
  No explicit requirement for turning off preconditioner.
  | By default, it will be turned off when the charge convergence reaches
  | sc_accuracy_rho  =   0.100000E-05
  No special mixing parameter while Kerker preconditioner is on.
  Using default: charge_mix_param =     0.0500.
  No q(lm)/r^(l+1) cutoff set for long-range Hartree potential.
  | Using default value of  0.100000E-09 .
  | Verify using the multipole_threshold keyword.
  Defaulting to new monopole extrapolation.
  Density update method: automatic selection selected.
  Using density matrix based charge density update.
  Using density matrix based charge density update.
  Using packed matrix style: index .
  Defaulting to use time-reversal symmetry for k-point grid.
  Charge integration errors on the 3D integration grid will be compensated
  by explicit normalization and distribution of residual charges.
  Use the "compensate_multipole_errors" flag to change this behaviour.
------------------------------------------------------------


------------------------------------------------------------
          Reading geometry description geometry.in.
------------------------------------------------------------
  Input structure read successfully.
  The structure contains        4 atoms,  and a total of         24.000 electrons.

  Input geometry:
  | Unit cell:
  |        1.23000000       -2.13042249        0.00000000
  |        1.23000000        2.13042249        0.00000000
  |        0.00000000        0.00000000        6.71000000
  | Atomic structure:
  |       Atom                x [A]            y [A]            z [A]
  |    1: Species C             0.00000000        0.00000000        1.67750000
  |    2: Species C             0.00000000        0.00000000       -1.67750000
  |    3: Species C             0.00000000       -1.42028166        1.67750000
  |    4: Species C             0.00000000        1.42028166       -1.67750000

  Lattice parameters for 3D lattice (in Angstroms) :     2.460000    2.460000    6.710000
  Angle(s) between unit vectors (in degrees)       :    90.000000   90.000000  120.000000

  | The smallest distance between any two atoms is         1.42028166 AA.
  | The first atom of this pair is atom number                      1 .
  | The second atom of this pair is atom number                     3 .
  | Wigner-Seitz cell of the first atom image           0     0     0 .
  | (The Wigner-Seitz cell of the second atom is 0 0 0  by definition.)

  Symmetry information by spglib:
  | Precision set to  0.1E-04
  | Number of Operations  : 24
  | Space group           : 194
  | International         : P6_3/mmc
  | Schoenflies           : D6h^4

  Quantities derived from the lattice vectors:
  | Reciprocal lattice vector 1:  2.554140 -1.474634  0.000000
  | Reciprocal lattice vector 2:  2.554140  1.474634  0.000000
  | Reciprocal lattice vector 3:  0.000000  0.000000  0.936391
  | Unit cell volume                               :   0.351660E+02  A^3

  Range separation radius for Ewald summation (hartree_convergence_parameter):      2.82092147 bohr.

  Fractional coordinates:
                         L1                L2                L3
       atom_frac         0.00000000        0.00000000        0.25000000  C
       atom_frac         0.00000000        0.00000000       -0.25000000  C
       atom_frac         0.33333333       -0.33333333        0.25000000  C
       atom_frac        -0.33333333        0.33333333       -0.25000000  C

  Number of empty states per atom not set in control.in - providing a guess from actual geometry.
  | Total number of empty states used during s.c.f. cycle:       12
  If you use a very high smearing, use empty_states (per atom!) in control.in to increase this value.

  Structure-dependent array size parameters: 
  | Maximum number of distinct radial functions  :       11
  | Maximum number of basis functions            :      156
  | Number of Kohn-Sham states (occupied + empty):       24
------------------------------------------------------------

------------------------------------------------------------
          Preparing all fixed parts of the calculation.
------------------------------------------------------------
  Determining machine precision:
    2.225073858507201E-308
  Setting up grids for atomic and cluster calculations.

  Creating wave function, potential, and density for free atoms.

  Species: C

  List of occupied orbitals and eigenvalues:
    n    l              occ      energy [Ha]    energy [eV]
    1    0           2.0000       -10.049212      -273.4530
    2    0           2.0000        -0.504761       -13.7352
    2    1           2.0000        -0.193631        -5.2690

  Creating fixed part of basis set: Ionic, confined, hydrogenic.
 
  C                    hydrogenic:
 
  List of hydrogenic basis orbitals: 
    n    l      effective z      eigenvalue [eV]  inner max. [A]     outer max. [A]     outer radius [A]   
    2    1         1.700000        -9.8152           1.245706           1.245706           5.401630
    3    2         6.000000       -54.4226           0.792453           0.792453           4.178599
    2    0         4.900000       -81.6681           0.082559           0.562749           3.353238
    4    3         9.800000       -81.6681           0.863254           0.863254           4.028125
    3    1         5.200000       -40.8774           0.305389           1.215618           4.898362
    3    0         4.300000       -27.9508           0.091041           1.610311           5.401630
    5    4        14.400000      -112.8510           0.917666           0.917666           3.883070
    3    2         6.200000       -58.1113           0.763917           0.763917           4.077671
 

  Adding cutoff potential to free-atom effective potential.
  Creating atomic-like basis functions for current effective potential.

  Species C                   :

  List of atomic basis orbitals and eigenvalues:
    n    l      energy [Ha]    energy [eV]    outer radius [A]
    1    0       -10.049212      -273.4530       1.934409
    2    0        -0.504761       -13.7352       5.271162
    2    1        -0.193631        -5.2690       5.401630

  Assembling full basis from fixed parts.
  | Species C :   atomic orbital   1 s accepted.
  | Species C :    hydro orbital   2 s accepted.
  | Species C :   atomic orbital   2 s accepted.
  | Species C :    hydro orbital   3 s accepted.
  | Species C :    hydro orbital   3 p accepted.
  | Species C :   atomic orbital   2 p accepted.
  | Species C :    hydro orbital   2 p accepted.
  | Species C :    hydro orbital   3 d accepted.
  | Species C :    hydro orbital   3 d accepted.
  | Species C :    hydro orbital   4 f accepted.
  | Species C :    hydro orbital   5 g accepted.
 
  Basis size parameters after reduction:
  | Total number of radial functions:       11
  | Total number of basis functions :      156
 
  Per-task memory consumption for arrays in subroutine allocate_ext:
  |           3.600012MB.
  Testing on-site integration grid accuracy.
  |  Species  Function  <phi|h_atom|phi> (log., in eV)  <phi|h_atom|phi> (rad., in eV)
           1        1               -273.4529725981               -273.4529710451
           1        2                -10.7721037329                -10.7721022102
           1        3                 17.6044132585                 17.6044162052
           1        4                 53.7706460564                 53.7706913681
           1        5                 15.0973290351                 15.0973256011
           1        6                  3.8545134677                  3.8545724657
           1        7                 12.1156992586                 12.1182024423
           1        8                 29.4352039288                 29.4352041805
           1        9                 54.8741144697                 54.8740268719
           1       10                 59.3556032036                 59.3556031370
           1       11                 93.4551837140                 93.4551837996

  Preparing densities etc. for the partition functions (integrals / Hartree potential).

  Preparations completed.
  max(cpu_time)          :      0.141 s.
  Wall clock time (cpu1) :      0.173 s.
------------------------------------------------------------

------------------------------------------------------------
          Begin self-consistency loop: Initialization.

          Date     :  20200319, Time     :  194129.913
------------------------------------------------------------

  Initializing index lists of integration centers etc. from given atomic structure:
  Mapping all atomic coordinates to central unit cell.

  Initializing the k-points
  Using symmetry for reducing the k-points
  | k-points reduced from:     2744 to     1376
  | Number of k-points                             :      1376
  The eigenvectors in the calculations are COMPLEX.
  | K-points in task   0:        57
  | K-points in task   1:        58
  | K-points in task   2:        58
  | K-points in task   3:        58
  | K-points in task   4:        58
  | K-points in task   5:        58
  | K-points in task   6:        58
  | K-points in task   7:        58
  | K-points in task   8:        58
  | K-points in task   9:        57
  | K-points in task  10:        57
  | K-points in task  11:        57
  | K-points in task  12:        57
  | K-points in task  13:        57
  | K-points in task  14:        57
  | K-points in task  15:        57
  | K-points in task  16:        57
  | K-points in task  17:        57
  | K-points in task  18:        57
  | K-points in task  19:        57
  | K-points in task  20:        57
  | K-points in task  21:        57
  | K-points in task  22:        57
  | K-points in task  23:        57
  | Number of basis functions in the Hamiltonian integrals :      7182
  | Number of basis functions in a single unit cell        :       156
  | Number of centers in hartree potential         :      1424
  | Number of centers in hartree multipole         :      1294
  | Number of centers in electron density summation:       970
  | Number of centers in basis integrals           :      1020
  | Number of centers in integrals                 :       340
  | Number of centers in hamiltonian               :       970
  | Consuming       6665 KiB for k_phase.
  | Number of super-cells (origin) [n_cells]                     :        1575
  | Number of super-cells (after PM_index) [n_cells]             :         310
  | Number of super-cells in hamiltonian [n_cells_in_hamiltonian]:         310
  | Size of matrix packed + index [n_hamiltonian_matrix_size] :     1112301
  | Estimated reciprocal-space cutoff momentum G_max:         3.55244536 bohr^-1 .
  | Reciprocal lattice points for long-range Hartree potential:     188
  Partitioning the integration grid into batches with parallel hashing+maxmin method.
  | Number of batches:     1024
  | Maximal batch size:      94
  | Minimal batch size:      58
  | Average batch size:      70.617
  | Standard deviation of batch sizes:       6.896

  Integration load balanced across    24 MPI tasks.
  Work distribution over tasks is as follows:
  Task     0 has       3022 integration points.
  Task     1 has       3029 integration points.
  Task     2 has       2982 integration points.
  Task     3 has       3017 integration points.
  Task     4 has       2996 integration points.
  Task     5 has       3035 integration points.
  Task     6 has       3005 integration points.
  Task     7 has       2981 integration points.
  Task     8 has       3041 integration points.
  Task     9 has       2988 integration points.
  Task    10 has       3003 integration points.
  Task    11 has       3044 integration points.
  Task    12 has       2997 integration points.
  Task    13 has       3021 integration points.
  Task    14 has       3032 integration points.
  Task    15 has       3040 integration points.
  Task    16 has       2988 integration points.
  Task    17 has       3024 integration points.
  Task    18 has       3000 integration points.
  Task    19 has       3005 integration points.
  Task    20 has       3031 integration points.
  Task    21 has       3014 integration points.
  Task    22 has       3035 integration points.
  Task    23 has       2982 integration points.
  Initializing partition tables, free-atom densities, potentials, etc. across the integration grid (initialize_grid_storage).
  | initialize_grid_storage: Actual outermost partition radius vs. multipole_radius_free
  | (-- VB: in principle, multipole_radius_free should be larger, hence this output)
  | Species        1: Confinement radius =              6.000000000000000 AA, multipole_radius_free =              6.029870734432609 AA.
  | Species        1: outer_partition_radius set to              6.029870734432609 AA .
  | The sparse table of interatomic distances needs       9620.76 kbyte instead of      8323.20 kbyte of memory.
  | Using the partition_type stratmann_smoother will reduce your memory usage.
  | Net number of integration points:    72312
  | of which are non-zero points    :    49128
  | Numerical average free-atom electrostatic potential    :    -14.04107976 eV
  Renormalizing the initial density to the exact electron count on the 3D integration grid.
  | Initial density: Formal number of electrons (from input files) :      24.0000000000
  | Integrated number of electrons on 3D grid     :      24.0000819816
  | Charge integration error                      :       0.0000819816
  | Normalization factor for density and gradient :       0.9999965841
  Renormalizing the free-atom superposition density to the exact electron count on the 3D integration grid.
  | Formal number of electrons (from input files) :      24.0000000000
  | Integrated number of electrons on 3D grid     :      24.0000819816
  | Charge integration error                      :       0.0000819816
  | Normalization factor for density and gradient :       0.9999965841
  Obtaining max. number of non-zero basis functions in each batch (get_n_compute_maxes).
  | Maximal number of non-zero basis functions:     2198 in task     0
  | Maximal number of non-zero basis functions:     2158 in task     1
  | Maximal number of non-zero basis functions:     2196 in task     2
  | Maximal number of non-zero basis functions:     2187 in task     3
  | Maximal number of non-zero basis functions:     2207 in task     4
  | Maximal number of non-zero basis functions:     2231 in task     5
  | Maximal number of non-zero basis functions:     2214 in task     6
  | Maximal number of non-zero basis functions:     2201 in task     7
  | Maximal number of non-zero basis functions:     2193 in task     8
  | Maximal number of non-zero basis functions:     2179 in task     9
  | Maximal number of non-zero basis functions:     2183 in task    10
  | Maximal number of non-zero basis functions:     2203 in task    11
  | Maximal number of non-zero basis functions:     2198 in task    12
  | Maximal number of non-zero basis functions:     2215 in task    13
  | Maximal number of non-zero basis functions:     2182 in task    14
  | Maximal number of non-zero basis functions:     2188 in task    15
  | Maximal number of non-zero basis functions:     2251 in task    16
  | Maximal number of non-zero basis functions:     2200 in task    17
  | Maximal number of non-zero basis functions:     2185 in task    18
  | Maximal number of non-zero basis functions:     2185 in task    19
  | Maximal number of non-zero basis functions:     2209 in task    20
  | Maximal number of non-zero basis functions:     2201 in task    21
  | Maximal number of non-zero basis functions:     2231 in task    22
  | Maximal number of non-zero basis functions:     2203 in task    23
  Allocating        3.256 MB for KS_eigenvector_complex
  Integrating Hamiltonian matrix: batch-based integration.
  Time summed over all CPUs for integration: real work       64.874 s, elapsed       66.079 s
  Integrating overlap matrix.
  Time summed over all CPUs for integration: real work       54.598 s, elapsed       55.406 s
  Decreasing sparse matrix size:
  | Tolerance:  0.1000E-12
  Hamiltonian matrix
  | Array has   805750 nonzero elements out of  1112301 elements
  | Sparsity factor is 0.276
  Overlap matrix
  | Array has   738758 nonzero elements out of  1112301 elements
  | Sparsity factor is 0.336
  New size of hamiltonian matrix:      807919

  Updating Kohn-Sham eigenvalues and eigenvectors using ELSI and the (modified) LAPACK eigensolver.
  Singularity check in k-point 24, task 0 (analysis for other k-points/tasks may follow below):
  Overlap matrix is not singular
  | Lowest and highest eigenvalues :  0.9737E-04,  0.1912E+02
  Finished singularity check of overlap matrix
  | Time :     0.021 s
  Starting LAPACK eigensolver
  Finished Cholesky decomposition
  | Time :     0.018 s
  Finished transformation to standard eigenproblem
  | Time :     0.002 s
  Finished solving standard eigenproblem
  | Time :     0.004 s
  Finished back-transformation of eigenvectors
  | Time :     0.001 s

  Obtaining occupation numbers and chemical potential using ELSI.
  | Chemical potential (Fermi level):    -7.82055719 eV
  Writing Kohn-Sham eigenvalues.
  K-point:       1 at    0.000000    0.000000    0.000000 (in units of recip. lattice)

  State    Occupation    Eigenvalue [Ha]    Eigenvalue [eV]
      1       2.00000         -10.166665         -276.64904
      2       2.00000         -10.166665         -276.64902
      3       2.00000         -10.165707         -276.62296
      4       2.00000         -10.165707         -276.62296
      5       2.00000          -1.052018          -28.62686
      6       2.00000          -1.044067          -28.41052
      7       2.00000          -0.601500          -16.36764
      8       2.00000          -0.544764          -14.82379
      9       2.00000          -0.469080          -12.76431
     10       2.00000          -0.469080          -12.76431
     11       2.00000          -0.468619          -12.75177
     12       2.00000          -0.468619          -12.75177
     13       0.00000          -0.080400           -2.18779
     14       0.00000          -0.030689           -0.83509
     15       0.00000          -0.030688           -0.83507
     16       0.00000          -0.029369           -0.79918
     17       0.00000          -0.029368           -0.79916
     18       0.00000           0.093146            2.53464
     19       0.00000           0.098826            2.68918
     20       0.00000           0.126375            3.43883
     21       0.00000           0.132080            3.59407
     22       0.00000           0.137496            3.74146
     23       0.00000           0.415112           11.29578
     24       0.00000           0.558242           15.19054

  What follows are estimated values for band gap, HOMO, LUMO, etc.
  | They are estimated on a discrete k-point grid and not necessarily exact.
  | For converged numbers, create a DOS and/or band structure plot on a denser k-grid.

  Highest occupied state (VBM) at     -8.71353414 eV (relative to internal zero)
  | Occupation number:      2.00000000
  | K-point:     742 at    0.357143    0.357143    0.000000 (in units of recip. lattice)

  Lowest unoccupied state (CBM) at    -7.77817696 eV (relative to internal zero)
  | Occupation number:      0.00000000
  | K-point:     731 at    0.357143    0.285714    0.000000 (in units of recip. lattice)

  ESTIMATED overall HOMO-LUMO gap:      0.93535718 eV between HOMO at k-point 742 and LUMO at k-point 731
  | This appears to be an indirect band gap.
  | Smallest direct gap :      0.93535933 eV for k_point 731 at    0.357143    0.285714    0.000000 (in units of recip. lattice)
  The gap value is above 0.2 eV. Unless you are using a very sparse k-point grid,
  this system is most likely an insulator or a semiconductor.
  Calculating total energy contributions from superposition of free atom densities.

  Total energy components:
  | Sum of eigenvalues            :         -92.01146177 Ha       -2503.75926454 eV
  | XC energy correction          :         -21.41694622 Ha        -582.78475833 eV
  | XC potential correction       :          27.51703132 Ha         748.77651945 eV
  | Free-atom electrostatic energy:         -66.62162784 Ha       -1812.86673124 eV
  | Hartree energy correction     :           0.00000000 Ha           0.00000000 eV
  | Entropy correction            :          -0.00000000 Ha          -0.00000000 eV
  | ---------------------------
  | Total energy                  :        -152.53300451 Ha       -4150.63423467 eV
  | Total energy, T -> 0          :        -152.53300451 Ha       -4150.63423467 eV  <-- do not rely on this value for anything but (periodic) metals
  | Electronic free energy        :        -152.53300451 Ha       -4150.63423467 eV

  Derived energy quantities:
  | Kinetic energy                :         151.91528361 Ha        4133.82519381 eV
  | Electrostatic energy          :        -283.03134191 Ha       -7701.67467014 eV
  | Energy correction for multipole
  | error in Hartree potential    :           0.00000000 Ha           0.00000000 eV
  | Sum of eigenvalues per atom                           :        -625.93981614 eV
  | Total energy (T->0) per atom                          :       -1037.65855867 eV  <-- do not rely on this value for anything but (periodic) metals
  | Electronic free energy per atom                       :       -1037.65855867 eV
  Initialize hartree_potential_storage
  Max. number of atoms included in rho_multipole:            4

  End scf initialization - timings             :  max(cpu_time)    wall_clock(cpu1)
  | Time for scf. initialization               :        7.571 s           7.625 s
  | Boundary condition initialization          :        0.176 s           0.179 s
  | Integration                                :        5.163 s           5.167 s
  | Solution of K.-S. eqns.                    :        1.034 s           1.064 s
  | Grid partitioning                          :        0.087 s           0.091 s
  | Preloading free-atom quantities on grid    :        0.009 s           0.009 s
  | Free-atom superposition energy             :        0.055 s           0.055 s
  | Total energy evaluation                    :        0.001 s           0.002 s

  Partial memory accounting:
  | Current value for overall tracked memory usage:
  |   Minimum:       18.667 MB (on task  0)
  |   Maximum:       18.724 MB (on task  1)
  |   Average:       18.686 MB
  | Peak value for overall tracked memory usage:
  |   Minimum:       64.751 MB (on task  1 after allocating wave)
  |   Maximum:       68.025 MB (on task 16 after allocating wave)
  |   Average:       66.201 MB
  | Largest tracked array allocation so far:
  |   Minimum:       35.530 MB (hamiltonian_shell on task  1)
  |   Maximum:       38.658 MB (hamiltonian_shell on task 16)
  |   Average:       36.926 MB
  Note:  These values currently only include a subset of arrays which are explicitly tracked.
  The "true" memory usage will be greater.
------------------------------------------------------------

------------------------------------------------------------
          Begin self-consistency iteration #    1

  Date     :  20200319, Time     :  194137.540
------------------------------------------------------------
  Evaluating new KS density using the density matrix
  Evaluating density matrix
  Time summed over all CPUs for getting density from density matrix: real work      119.483 s, elapsed      123.051 s
  Integration grid: deviation in total charge (<rho> - N_e) =   8.821388E-12
  Pulay mixing of updated and previous charge densities.
  Renormalizing the density to the exact electron count on the 3D integration grid.
  | Formal number of electrons (from input files) :      24.0000000000
  | Integrated number of electrons on 3D grid     :      23.9996353243
  | Charge integration error                      :      -0.0003646757
  | Normalization factor for density and gradient :       1.0000151951

  Evaluating partitioned Hartree potential by multipole expansion.
  | Original multipole sum: apparent total charge =  -0.103253E-13
  | Sum of charges compensated after spline to logarithmic grids =   0.672387E-07
  | Analytical far-field extrapolation by fixed multipoles:
  | Hartree multipole sum: apparent total charge =  -0.103028E-13
  Summing up the Hartree potential.
  Time summed over all CPUs for potential: real work        8.467 s, elapsed        8.877 s
  | RMS charge density error from multipole expansion :   0.583685E-03
  | Average real-space part of the electrostatic potential :      0.02381146 eV

  Integrating Hamiltonian matrix: batch-based integration.
  Time summed over all CPUs for integration: real work       60.965 s, elapsed       61.871 s

  Updating Kohn-Sham eigenvalues and eigenvectors using ELSI and the (modified) LAPACK eigensolver.
  Starting LAPACK eigensolver
  Finished Cholesky decomposition
  | Time :     0.000 s
  Finished transformation to standard eigenproblem
  | Time :     0.001 s
  Finished solving standard eigenproblem
  | Time :     0.004 s
  Finished back-transformation of eigenvectors
  | Time :     0.000 s

  Obtaining occupation numbers and chemical potential using ELSI.
  | Chemical potential (Fermi level):    -7.72876282 eV
  Writing Kohn-Sham eigenvalues.
  K-point:       1 at    0.000000    0.000000    0.000000 (in units of recip. lattice)

  State    Occupation    Eigenvalue [Ha]    Eigenvalue [eV]
      1       2.00000         -10.157470         -276.39882
      2       2.00000         -10.157469         -276.39881
      3       2.00000         -10.156504         -276.37254
      4       2.00000         -10.156504         -276.37254
      5       2.00000          -1.047347          -28.49975
      6       2.00000          -1.039235          -28.27903
      7       2.00000          -0.599227          -16.30579
      8       2.00000          -0.541590          -14.73741
      9       2.00000          -0.462679          -12.59014
     10       2.00000          -0.462679          -12.59013
     11       2.00000          -0.462208          -12.57731
     12       2.00000          -0.462207          -12.57730
     13       0.00000          -0.081208           -2.20979
     14       0.00000          -0.025312           -0.68878
     15       0.00000          -0.025312           -0.68876
     16       0.00000          -0.023966           -0.65214
     17       0.00000          -0.023965           -0.65212
     18       0.00000           0.097816            2.66172
     19       0.00000           0.103590            2.81883
     20       0.00000           0.126617            3.44543
     21       0.00000           0.136998            3.72790
     22       0.00000           0.142513            3.87798
     23       0.00000           0.415827           11.31524
     24       0.00000           0.560508           15.25221

  What follows are estimated values for band gap, HOMO, LUMO, etc.
  | They are estimated on a discrete k-point grid and not necessarily exact.
  | For converged numbers, create a DOS and/or band structure plot on a denser k-grid.

  Highest occupied state (VBM) at     -8.62179012 eV (relative to internal zero)
  | Occupation number:      2.00000000
  | K-point:     742 at    0.357143    0.357143    0.000000 (in units of recip. lattice)

  Lowest unoccupied state (CBM) at    -7.68637389 eV (relative to internal zero)
  | Occupation number:      0.00000000
  | K-point:     731 at    0.357143    0.285714    0.000000 (in units of recip. lattice)

  ESTIMATED overall HOMO-LUMO gap:      0.93541623 eV between HOMO at k-point 742 and LUMO at k-point 731
  | This appears to be an indirect band gap.
  | Smallest direct gap :      0.93541802 eV for k_point 731 at    0.357143    0.285714    0.000000 (in units of recip. lattice)
  The gap value is above 0.2 eV. Unless you are using a very sparse k-point grid,
  this system is most likely an insulator or a semiconductor.

  Total energy components:
  | Sum of eigenvalues            :         -91.85979268 Ha       -2499.63213861 eV
  | XC energy correction          :         -21.43010106 Ha        -583.14271972 eV
  | XC potential correction       :          27.53400967 Ha         749.23852398 eV
  | Free-atom electrostatic energy:         -66.62162784 Ha       -1812.86673124 eV
  | Hartree energy correction     :          -0.14566275 Ha          -3.96368501 eV
  | Entropy correction            :          -0.00000000 Ha          -0.00000000 eV
  | ---------------------------
  | Total energy                  :        -152.52317465 Ha       -4150.36675061 eV
  | Total energy, T -> 0          :        -152.52317465 Ha       -4150.36675061 eV  <-- do not rely on this value for anything but (periodic) metals
  | Electronic free energy        :        -152.52317465 Ha       -4150.36675061 eV

  Derived energy quantities:
  | Kinetic energy                :         151.96273193 Ha        4135.11632814 eV
  | Electrostatic energy          :        -283.05580552 Ha       -7702.34035903 eV
  | Energy correction for multipole
  | error in Hartree potential    :          -0.00131043 Ha          -0.03565861 eV
  | Sum of eigenvalues per atom                           :        -624.90803465 eV
  | Total energy (T->0) per atom                          :       -1037.59168765 eV  <-- do not rely on this value for anything but (periodic) metals
  | Electronic free energy per atom                       :       -1037.59168765 eV

  Self-consistency convergence accuracy:
  | Change of charge density      :  0.3312E+00
  | Change of sum of eigenvalues  :  0.4127E+01 eV
  | Change of total energy        :  0.2675E+00 eV

  End self-consistency iteration #     1       :  max(cpu_time)    wall_clock(cpu1)
  | Time for this iteration                    :        9.456 s           9.457 s
  | Charge density update                      :        5.457 s           5.458 s
  | Density mixing & preconditioning           :        0.184 s           0.184 s
  | Hartree multipole update                   :        0.002 s           0.002 s
  | Hartree multipole summation                :        0.378 s           0.377 s
  | Integration                                :        2.633 s           2.634 s
  | Solution of K.-S. eqns.                    :        0.800 s           0.801 s
  | Total energy evaluation                    :        0.001 s           0.001 s

  Partial memory accounting:
  | Current value for overall tracked memory usage:
  |   Minimum:       18.667 MB (on task  0)
  |   Maximum:       18.724 MB (on task  1)
  |   Average:       18.686 MB
  | Peak value for overall tracked memory usage:
  |   Minimum:       64.751 MB (on task  1 after allocating wave)
  |   Maximum:       68.025 MB (on task 16 after allocating wave)
  |   Average:       66.201 MB
  | Largest tracked array allocation so far:
  |   Minimum:       35.530 MB (hamiltonian_shell on task  1)
  |   Maximum:       38.658 MB (hamiltonian_shell on task 16)
  |   Average:       36.926 MB
  Note:  These values currently only include a subset of arrays which are explicitly tracked.
  The "true" memory usage will be greater.
------------------------------------------------------------

------------------------------------------------------------
          Begin self-consistency iteration #    2

  Date     :  20200319, Time     :  194146.998
------------------------------------------------------------
  Evaluating new KS density using the density matrix
  Evaluating density matrix
  Time summed over all CPUs for getting density from density matrix: real work      118.874 s, elapsed      121.101 s
  Integration grid: deviation in total charge (<rho> - N_e) =   8.846257E-12
  Pulay mixing of updated and previous charge densities.
  Renormalizing the density to the exact electron count on the 3D integration grid.
  | Formal number of electrons (from input files) :      24.0000000000
  | Integrated number of electrons on 3D grid     :      23.9939586864
  | Charge integration error                      :      -0.0060413136
  | Normalization factor for density and gradient :       1.0002517848

  Evaluating partitioned Hartree potential by multipole expansion.
  | Original multipole sum: apparent total charge =  -0.937635E-14
  | Sum of charges compensated after spline to logarithmic grids =   0.119293E-05
  | Analytical far-field extrapolation by fixed multipoles:
  | Hartree multipole sum: apparent total charge =  -0.937231E-14
  Summing up the Hartree potential.
  Time summed over all CPUs for potential: real work        8.669 s, elapsed        9.085 s
  | RMS charge density error from multipole expansion :   0.104463E-01
  | Average real-space part of the electrostatic potential :      0.42325756 eV

  Integrating Hamiltonian matrix: batch-based integration.
  Time summed over all CPUs for integration: real work       61.010 s, elapsed       61.965 s

  Updating Kohn-Sham eigenvalues and eigenvectors using ELSI and the (modified) LAPACK eigensolver.
  Starting LAPACK eigensolver
  Finished Cholesky decomposition
  | Time :     0.000 s
  Finished transformation to standard eigenproblem
  | Time :     0.002 s
  Finished solving standard eigenproblem
  | Time :     0.004 s
  Finished back-transformation of eigenvectors
  | Time :     0.000 s

  Obtaining occupation numbers and chemical potential using ELSI.
  | Chemical potential (Fermi level):    -6.23741285 eV
  What follows are estimated values for band gap, HOMO, LUMO, etc.
  | They are estimated on a discrete k-point grid and not necessarily exact.
  | For converged numbers, create a DOS and/or band structure plot on a denser k-grid.

  Highest occupied state (VBM) at     -7.14075038 eV (relative to internal zero)
  | Occupation number:      2.00000000
  | K-point:     595 at    0.285714    0.357143    0.000000 (in units of recip. lattice)

  Lowest unoccupied state (CBM) at    -6.19474418 eV (relative to internal zero)
  | Occupation number:      0.00000000
  | K-point:     731 at    0.357143    0.285714    0.000000 (in units of recip. lattice)

  ESTIMATED overall HOMO-LUMO gap:      0.94600621 eV between HOMO at k-point 595 and LUMO at k-point 731
  | This appears to be an indirect band gap.
  | Smallest direct gap :      0.94600621 eV for k_point 595 at    0.357143    0.285714    0.000000 (in units of recip. lattice)
  The gap value is above 0.2 eV. Unless you are using a very sparse k-point grid,
  this system is most likely an insulator or a semiconductor.

  Total energy components:
  | Sum of eigenvalues            :         -89.33731263 Ha       -2430.99196418 eV
  | XC energy correction          :         -21.68725370 Ha        -590.14019928 eV
  | XC potential correction       :          27.86349289 Ha         758.20421843 eV
  | Free-atom electrostatic energy:         -66.62162784 Ha       -1812.86673124 eV
  | Hartree energy correction     :          -2.66618436 Ha         -72.55056772 eV
  | Entropy correction            :          -0.00000000 Ha          -0.00000000 eV
  | ---------------------------
  | Total energy                  :        -152.44888565 Ha       -4148.34524399 eV
  | Total energy, T -> 0          :        -152.44888565 Ha       -4148.34524399 eV  <-- do not rely on this value for anything but (periodic) metals
  | Electronic free energy        :        -152.44888565 Ha       -4148.34524399 eV

  Derived energy quantities:
  | Kinetic energy                :         152.57206470 Ha        4151.69711660 eV
  | Electrostatic energy          :        -283.33369665 Ha       -7709.90216131 eV
  | Energy correction for multipole
  | error in Hartree potential    :          -0.02327557 Ha          -0.63336036 eV
  | Sum of eigenvalues per atom                           :        -607.74799104 eV
  | Total energy (T->0) per atom                          :       -1037.08631100 eV  <-- do not rely on this value for anything but (periodic) metals
  | Electronic free energy per atom                       :       -1037.08631100 eV

  Self-consistency convergence accuracy:
  | Change of charge density      :  0.3128E+00
  | Change of sum of eigenvalues  :  0.6864E+02 eV
  | Change of total energy        :  0.2022E+01 eV

  End self-consistency iteration #     2       :  max(cpu_time)    wall_clock(cpu1)
  | Time for this iteration                    :        9.354 s           9.356 s
  | Charge density update                      :        5.372 s           5.373 s
  | Density mixing & preconditioning           :        0.159 s           0.160 s
  | Hartree multipole update                   :        0.002 s           0.002 s
  | Hartree multipole summation                :        0.387 s           0.386 s
  | Integration                                :        2.636 s           2.637 s
  | Solution of K.-S. eqns.                    :        0.796 s           0.796 s
  | Total energy evaluation                    :        0.001 s           0.001 s

  Partial memory accounting:
  | Current value for overall tracked memory usage:
  |   Minimum:       18.667 MB (on task  0)
  |   Maximum:       18.724 MB (on task  1)
  |   Average:       18.686 MB
  | Peak value for overall tracked memory usage:
  |   Minimum:       64.751 MB (on task  1 after allocating wave)
  |   Maximum:       68.025 MB (on task 16 after allocating wave)
  |   Average:       66.201 MB
  | Largest tracked array allocation so far:
  |   Minimum:       35.530 MB (hamiltonian_shell on task  1)
  |   Maximum:       38.658 MB (hamiltonian_shell on task 16)
  |   Average:       36.926 MB
  Note:  These values currently only include a subset of arrays which are explicitly tracked.
  The "true" memory usage will be greater.
------------------------------------------------------------

------------------------------------------------------------
          Begin self-consistency iteration #    3

  Date     :  20200319, Time     :  194156.357
------------------------------------------------------------
  Evaluating new KS density using the density matrix
  Evaluating density matrix
  Time summed over all CPUs for getting density from density matrix: real work      118.862 s, elapsed      121.157 s
  Integration grid: deviation in total charge (<rho> - N_e) =   8.853362E-12
  Pulay mixing of updated and previous charge densities.
  Renormalizing the density to the exact electron count on the 3D integration grid.
  | Formal number of electrons (from input files) :      24.0000000000
  | Integrated number of electrons on 3D grid     :      24.0007995366
  | Charge integration error                      :       0.0007995366
  | Normalization factor for density and gradient :       0.9999666871

  Evaluating partitioned Hartree potential by multipole expansion.
  | Original multipole sum: apparent total charge =  -0.155071E-13
  | Sum of charges compensated after spline to logarithmic grids =   0.122636E-05
  | Analytical far-field extrapolation by fixed multipoles:
  | Hartree multipole sum: apparent total charge =  -0.154234E-13
  Summing up the Hartree potential.
  Time summed over all CPUs for potential: real work        8.671 s, elapsed        9.083 s
  | RMS charge density error from multipole expansion :   0.107149E-01
  | Average real-space part of the electrostatic potential :      0.41700016 eV

  Integrating Hamiltonian matrix: batch-based integration.
  Time summed over all CPUs for integration: real work       60.987 s, elapsed       61.877 s

  Updating Kohn-Sham eigenvalues and eigenvectors using ELSI and the (modified) LAPACK eigensolver.
  Starting LAPACK eigensolver
  Finished Cholesky decomposition
  | Time :     0.000 s
  Finished transformation to standard eigenproblem
  | Time :     0.002 s
  Finished solving standard eigenproblem
  | Time :     0.004 s
  Finished back-transformation of eigenvectors
  | Time :     0.000 s

  Obtaining occupation numbers and chemical potential using ELSI.
  | Chemical potential (Fermi level):    -6.33465063 eV
  What follows are estimated values for band gap, HOMO, LUMO, etc.
  | They are estimated on a discrete k-point grid and not necessarily exact.
  | For converged numbers, create a DOS and/or band structure plot on a denser k-grid.

  Highest occupied state (VBM) at     -7.23642272 eV (relative to internal zero)
  | Occupation number:      2.00000000
  | K-point:     742 at    0.357143    0.357143    0.000000 (in units of recip. lattice)

  Lowest unoccupied state (CBM) at    -6.29201047 eV (relative to internal zero)
  | Occupation number:      0.00000000
  | K-point:     595 at    0.285714    0.357143    0.000000 (in units of recip. lattice)

  ESTIMATED overall HOMO-LUMO gap:      0.94441225 eV between HOMO at k-point 742 and LUMO at k-point 595
  | This appears to be an indirect band gap.
  | Smallest direct gap :      0.94441398 eV for k_point 595 at    0.285714    0.357143    0.000000 (in units of recip. lattice)
  The gap value is above 0.2 eV. Unless you are using a very sparse k-point grid,
  this system is most likely an insulator or a semiconductor.

  Checking to see if s.c.f. parameters should be adjusted.
  The system likely has a gap. Increased the default Pulay mixing parameter (charge_mix_param). Value:   0.200000 .
  Kept the default occupation width. Value:   0.010000 eV.

  Total energy components:
  | Sum of eigenvalues            :         -89.54366936 Ha       -2436.60721662 eV
  | XC energy correction          :         -21.65753395 Ha        -589.33148351 eV
  | XC potential correction       :          27.82613719 Ha         757.18771818 eV
  | Free-atom electrostatic energy:         -66.62162784 Ha       -1812.86673124 eV
  | Hartree energy correction     :          -2.45205512 Ha         -66.72381469 eV
  | Entropy correction            :          -0.00000000 Ha          -0.00000000 eV
  | ---------------------------
  | Total energy                  :        -152.44874908 Ha       -4148.34152789 eV
  | Total energy, T -> 0          :        -152.44874908 Ha       -4148.34152789 eV  <-- do not rely on this value for anything but (periodic) metals
  | Electronic free energy        :        -152.44874908 Ha       -4148.34152789 eV

  Derived energy quantities:
  | Kinetic energy                :         152.33264165 Ha        4145.18208381 eV
  | Electrostatic energy          :        -283.12385679 Ha       -7704.19212819 eV
  | Energy correction for multipole
  | error in Hartree potential    :          -0.02362094 Ha          -0.64275846 eV
  | Sum of eigenvalues per atom                           :        -609.15180416 eV
  | Total energy (T->0) per atom                          :       -1037.08538197 eV  <-- do not rely on this value for anything but (periodic) metals
  | Electronic free energy per atom                       :       -1037.08538197 eV

  Self-consistency convergence accuracy:
  | Change of charge density      :  0.3957E-01
  | Change of sum of eigenvalues  : -0.5615E+01 eV
  | Change of total energy        :  0.3716E-02 eV

  End self-consistency iteration #     3       :  max(cpu_time)    wall_clock(cpu1)
  | Time for this iteration                    :        9.354 s           9.356 s
  | Charge density update                      :        5.375 s           5.376 s
  | Density mixing & preconditioning           :        0.160 s           0.160 s
  | Hartree multipole update                   :        0.002 s           0.002 s
  | Hartree multipole summation                :        0.387 s           0.387 s
  | Integration                                :        2.633 s           2.633 s
  | Solution of K.-S. eqns.                    :        0.797 s           0.797 s
  | Total energy evaluation                    :        0.001 s           0.001 s

  Partial memory accounting:
  | Current value for overall tracked memory usage:
  |   Minimum:       18.667 MB (on task  0)
  |   Maximum:       18.724 MB (on task  1)
  |   Average:       18.686 MB
  | Peak value for overall tracked memory usage:
  |   Minimum:       64.751 MB (on task  1 after allocating wave)
  |   Maximum:       68.025 MB (on task 16 after allocating wave)
  |   Average:       66.201 MB
  | Largest tracked array allocation so far:
  |   Minimum:       35.530 MB (hamiltonian_shell on task  1)
  |   Maximum:       38.658 MB (hamiltonian_shell on task 16)
  |   Average:       36.926 MB
  Note:  These values currently only include a subset of arrays which are explicitly tracked.
  The "true" memory usage will be greater.
------------------------------------------------------------

------------------------------------------------------------
          Begin self-consistency iteration #    4

  Date     :  20200319, Time     :  194205.714
------------------------------------------------------------
  Evaluating new KS density using the density matrix
  Evaluating density matrix
  Time summed over all CPUs for getting density from density matrix: real work      118.873 s, elapsed      121.123 s
  Integration grid: deviation in total charge (<rho> - N_e) =   8.849810E-12
  Pulay mixing of updated and previous charge densities.
  Renormalizing the density to the exact electron count on the 3D integration grid.
  | Formal number of electrons (from input files) :      24.0000000000
  | Integrated number of electrons on 3D grid     :      24.0008249820
  | Charge integration error                      :       0.0008249820
  | Normalization factor for density and gradient :       0.9999656269

  Evaluating partitioned Hartree potential by multipole expansion.
  | Original multipole sum: apparent total charge =  -0.214462E-15
  | Sum of charges compensated after spline to logarithmic grids =   0.139474E-05
  | Analytical far-field extrapolation by fixed multipoles:
  | Hartree multipole sum: apparent total charge =  -0.248860E-15
  Summing up the Hartree potential.
  Time summed over all CPUs for potential: real work        8.694 s, elapsed        9.110 s
  | RMS charge density error from multipole expansion :   0.122518E-01
  | Average real-space part of the electrostatic potential :      0.44768775 eV

  Integrating Hamiltonian matrix: batch-based integration.
  Time summed over all CPUs for integration: real work       60.911 s, elapsed       61.799 s

  Updating Kohn-Sham eigenvalues and eigenvectors using ELSI and the (modified) LAPACK eigensolver.
  Starting LAPACK eigensolver
  Finished Cholesky decomposition
  | Time :     0.001 s
  Finished transformation to standard eigenproblem
  | Time :     0.001 s
  Finished solving standard eigenproblem
  | Time :     0.004 s
  Finished back-transformation of eigenvectors
  | Time :     0.001 s

  Obtaining occupation numbers and chemical potential using ELSI.
  | Chemical potential (Fermi level):    -6.35074613 eV
  What follows are estimated values for band gap, HOMO, LUMO, etc.
  | They are estimated on a discrete k-point grid and not necessarily exact.
  | For converged numbers, create a DOS and/or band structure plot on a denser k-grid.

  Highest occupied state (VBM) at     -7.25181863 eV (relative to internal zero)
  | Occupation number:      2.00000000
  | K-point:     742 at    0.357143    0.357143    0.000000 (in units of recip. lattice)

  Lowest unoccupied state (CBM) at    -6.30812876 eV (relative to internal zero)
  | Occupation number:      0.00000000
  | K-point:     742 at    0.357143    0.357143    0.000000 (in units of recip. lattice)

  ESTIMATED overall HOMO-LUMO gap:      0.94368987 eV between HOMO at k-point 742 and LUMO at k-point 742
  | This appears to be a direct band gap.
  The gap value is above 0.2 eV. Unless you are using a very sparse k-point grid,
  this system is most likely an insulator or a semiconductor.

  Total energy components:
  | Sum of eigenvalues            :         -89.63830351 Ha       -2439.18234274 eV
  | XC energy correction          :         -21.63755930 Ha        -588.78794584 eV
  | XC potential correction       :          27.80142815 Ha         756.51535097 eV
  | Free-atom electrostatic energy:         -66.62162784 Ha       -1812.86673124 eV
  | Hartree energy correction     :          -2.35289780 Ha         -64.02560674 eV
  | Entropy correction            :          -0.00000000 Ha          -0.00000000 eV
  | ---------------------------
  | Total energy                  :        -152.44896031 Ha       -4148.34727560 eV
  | Total energy, T -> 0          :        -152.44896031 Ha       -4148.34727560 eV  <-- do not rely on this value for anything but (periodic) metals
  | Electronic free energy        :        -152.44896031 Ha       -4148.34727560 eV

  Derived energy quantities:
  | Kinetic energy                :         151.97674629 Ha        4135.49767826 eV
  | Electrostatic energy          :        -282.78814729 Ha       -7695.05700801 eV
  | Energy correction for multipole
  | error in Hartree potential    :          -0.02652631 Ha          -0.72181765 eV
  | Sum of eigenvalues per atom                           :        -609.79558569 eV
  | Total energy (T->0) per atom                          :       -1037.08681890 eV  <-- do not rely on this value for anything but (periodic) metals
  | Electronic free energy per atom                       :       -1037.08681890 eV

  Self-consistency convergence accuracy:
  | Change of charge density      :  0.2747E-01
  | Change of sum of eigenvalues  : -0.2575E+01 eV
  | Change of total energy        : -0.5748E-02 eV

  End self-consistency iteration #     4       :  max(cpu_time)    wall_clock(cpu1)
  | Time for this iteration                    :        9.367 s           9.368 s
  | Charge density update                      :        5.373 s           5.374 s
  | Density mixing & preconditioning           :        0.175 s           0.175 s
  | Hartree multipole update                   :        0.002 s           0.001 s
  | Hartree multipole summation                :        0.388 s           0.389 s
  | Integration                                :        2.629 s           2.629 s
  | Solution of K.-S. eqns.                    :        0.798 s           0.798 s
  | Total energy evaluation                    :        0.001 s           0.001 s

  Partial memory accounting:
  | Current value for overall tracked memory usage:
  |   Minimum:       18.667 MB (on task  0)
  |   Maximum:       18.724 MB (on task  1)
  |   Average:       18.686 MB
  | Peak value for overall tracked memory usage:
  |   Minimum:       64.751 MB (on task  1 after allocating wave)
  |   Maximum:       68.025 MB (on task 16 after allocating wave)
  |   Average:       66.201 MB
  | Largest tracked array allocation so far:
  |   Minimum:       35.530 MB (hamiltonian_shell on task  1)
  |   Maximum:       38.658 MB (hamiltonian_shell on task 16)
  |   Average:       36.926 MB
  Note:  These values currently only include a subset of arrays which are explicitly tracked.
  The "true" memory usage will be greater.
------------------------------------------------------------

------------------------------------------------------------
          Begin self-consistency iteration #    5

  Date     :  20200319, Time     :  194215.082
------------------------------------------------------------
  Evaluating new KS density using the density matrix
  Evaluating density matrix
  Time summed over all CPUs for getting density from density matrix: real work      118.883 s, elapsed      121.144 s
  Integration grid: deviation in total charge (<rho> - N_e) =   8.874679E-12
  Pulay mixing of updated and previous charge densities.
  Renormalizing the density to the exact electron count on the 3D integration grid.
  | Formal number of electrons (from input files) :      24.0000000000
  | Integrated number of electrons on 3D grid     :      24.0002786458
  | Charge integration error                      :       0.0002786458
  | Normalization factor for density and gradient :       0.9999883899

  Evaluating partitioned Hartree potential by multipole expansion.
  | Original multipole sum: apparent total charge =   0.346271E-14
  | Sum of charges compensated after spline to logarithmic grids =   0.138585E-05
  | Analytical far-field extrapolation by fixed multipoles:
  | Hartree multipole sum: apparent total charge =   0.349000E-14
  Summing up the Hartree potential.
  Time summed over all CPUs for potential: real work        8.697 s, elapsed        9.120 s
  | RMS charge density error from multipole expansion :   0.124979E-01
  | Average real-space part of the electrostatic potential :      0.45264837 eV

  Integrating Hamiltonian matrix: batch-based integration.
  Time summed over all CPUs for integration: real work       60.920 s, elapsed       61.828 s

  Updating Kohn-Sham eigenvalues and eigenvectors using ELSI and the (modified) LAPACK eigensolver.
  Starting LAPACK eigensolver
  Finished Cholesky decomposition
  | Time :     0.001 s
  Finished transformation to standard eigenproblem
  | Time :     0.001 s
  Finished solving standard eigenproblem
  | Time :     0.004 s
  Finished back-transformation of eigenvectors
  | Time :     0.001 s

  Obtaining occupation numbers and chemical potential using ELSI.
  | Chemical potential (Fermi level):    -6.34417235 eV
  What follows are estimated values for band gap, HOMO, LUMO, etc.
  | They are estimated on a discrete k-point grid and not necessarily exact.
  | For converged numbers, create a DOS and/or band structure plot on a denser k-grid.

  Highest occupied state (VBM) at     -7.24515212 eV (relative to internal zero)
  | Occupation number:      2.00000000
  | K-point:     742 at    0.357143    0.357143    0.000000 (in units of recip. lattice)

  Lowest unoccupied state (CBM) at    -6.30153484 eV (relative to internal zero)
  | Occupation number:      0.00000000
  | K-point:     742 at    0.357143    0.357143    0.000000 (in units of recip. lattice)

  ESTIMATED overall HOMO-LUMO gap:      0.94361727 eV between HOMO at k-point 742 and LUMO at k-point 742
  | This appears to be a direct band gap.
  The gap value is above 0.2 eV. Unless you are using a very sparse k-point grid,
  this system is most likely an insulator or a semiconductor.

  Total energy components:
  | Sum of eigenvalues            :         -89.62864148 Ha       -2438.91942544 eV
  | XC energy correction          :         -21.64002465 Ha        -588.85503137 eV
  | XC potential correction       :          27.80444678 Ha         756.59749203 eV
  | Free-atom electrostatic energy:         -66.62162784 Ha       -1812.86673124 eV
  | Hartree energy correction     :          -2.36310886 Ha         -64.30346369 eV
  | Entropy correction            :          -0.00000000 Ha          -0.00000000 eV
  | ---------------------------
  | Total energy                  :        -152.44895605 Ha       -4148.34715970 eV
  | Total energy, T -> 0          :        -152.44895605 Ha       -4148.34715970 eV  <-- do not rely on this value for anything but (periodic) metals
  | Electronic free energy        :        -152.44895605 Ha       -4148.34715970 eV

  Derived energy quantities:
  | Kinetic energy                :         151.99355144 Ha        4135.95496968 eV
  | Electrostatic energy          :        -282.80248284 Ha       -7695.44709801 eV
  | Energy correction for multipole
  | error in Hartree potential    :          -0.02701462 Ha          -0.73510517 eV
  | Sum of eigenvalues per atom                           :        -609.72985636 eV
  | Total energy (T->0) per atom                          :       -1037.08678992 eV  <-- do not rely on this value for anything but (periodic) metals
  | Electronic free energy per atom                       :       -1037.08678992 eV

  Self-consistency convergence accuracy:
  | Change of charge density      :  0.4577E-02
  | Change of sum of eigenvalues  :  0.2629E+00 eV
  | Change of total energy        :  0.1159E-03 eV

  End self-consistency iteration #     5       :  max(cpu_time)    wall_clock(cpu1)
  | Time for this iteration                    :        9.365 s           9.367 s
  | Charge density update                      :        5.373 s           5.374 s
  | Density mixing & preconditioning           :        0.175 s           0.175 s
  | Hartree multipole update                   :        0.002 s           0.002 s
  | Hartree multipole summation                :        0.388 s           0.389 s
  | Integration                                :        2.630 s           2.630 s
  | Solution of K.-S. eqns.                    :        0.795 s           0.796 s
  | Total energy evaluation                    :        0.001 s           0.001 s

  Partial memory accounting:
  | Current value for overall tracked memory usage:
  |   Minimum:       18.667 MB (on task  0)
  |   Maximum:       18.724 MB (on task  1)
  |   Average:       18.686 MB
  | Peak value for overall tracked memory usage:
  |   Minimum:       64.751 MB (on task  1 after allocating wave)
  |   Maximum:       68.025 MB (on task 16 after allocating wave)
  |   Average:       66.201 MB
  | Largest tracked array allocation so far:
  |   Minimum:       35.530 MB (hamiltonian_shell on task  1)
  |   Maximum:       38.658 MB (hamiltonian_shell on task 16)
  |   Average:       36.926 MB
  Note:  These values currently only include a subset of arrays which are explicitly tracked.
  The "true" memory usage will be greater.
------------------------------------------------------------

------------------------------------------------------------
          Begin self-consistency iteration #    6

  Date     :  20200319, Time     :  194224.451
------------------------------------------------------------
  Evaluating new KS density using the density matrix
  Evaluating density matrix
  Time summed over all CPUs for getting density from density matrix: real work      118.900 s, elapsed      121.080 s
  Integration grid: deviation in total charge (<rho> - N_e) =   8.782308E-12
  Pulay mixing of updated and previous charge densities.
  Renormalizing the density to the exact electron count on the 3D integration grid.
  | Formal number of electrons (from input files) :      24.0000000000
  | Integrated number of electrons on 3D grid     :      23.9999845506
  | Charge integration error                      :      -0.0000154494
  | Normalization factor for density and gradient :       1.0000006437

  Evaluating partitioned Hartree potential by multipole expansion.
  | Original multipole sum: apparent total charge =  -0.857519E-14
  | Sum of charges compensated after spline to logarithmic grids =   0.138555E-05
  | Analytical far-field extrapolation by fixed multipoles:
  | Hartree multipole sum: apparent total charge =  -0.849160E-14
  Summing up the Hartree potential.
  Time summed over all CPUs for potential: real work        8.702 s, elapsed        9.117 s
  | RMS charge density error from multipole expansion :   0.124915E-01
  | Average real-space part of the electrostatic potential :      0.45190318 eV

  Integrating Hamiltonian matrix: batch-based integration.
  Time summed over all CPUs for integration: real work       60.890 s, elapsed       61.823 s

  Updating Kohn-Sham eigenvalues and eigenvectors using ELSI and the (modified) LAPACK eigensolver.
  Starting LAPACK eigensolver
  Finished Cholesky decomposition
  | Time :     0.001 s
  Finished transformation to standard eigenproblem
  | Time :     0.001 s
  Finished solving standard eigenproblem
  | Time :     0.005 s
  Finished back-transformation of eigenvectors
  | Time :     0.000 s

[...]
  this system is most likely an insulator or a semiconductor.

  Total energy components:
  | Sum of eigenvalues            :         -89.59879872 Ha       -2438.10736261 eV
  | XC energy correction          :         -21.64420680 Ha        -588.96883354 eV
  | XC potential correction       :          27.80976154 Ha         756.74211423 eV
  | Free-atom electrostatic energy:         -66.62162784 Ha       -1812.86673124 eV
  | Hartree energy correction     :          -2.39408628 Ha         -65.14640229 eV
  | Entropy correction            :          -0.00000000 Ha          -0.00000000 eV
  | ---------------------------
  | Total energy                  :        -152.44895810 Ha       -4148.34721546 eV
  | Total energy, T -> 0          :        -152.44895810 Ha       -4148.34721546 eV  <-- do not rely on this value for anything but (periodic) metals
  | Electronic free energy        :        -152.44895810 Ha       -4148.34721546 eV

  Derived energy quantities:
  | Kinetic energy                :         151.99914301 Ha        4136.10712410 eV
  | Electrostatic energy          :        -282.80389430 Ha       -7695.48550602 eV
  | Energy correction for multipole
  | error in Hartree potential    :          -0.02751766 Ha          -0.74879373 eV
  | Sum of eigenvalues per atom                           :        -609.52684065 eV
  | Total energy (T->0) per atom                          :       -1037.08680386 eV  <-- do not rely on this value for anything but (periodic) metals
  | Electronic free energy per atom                       :       -1037.08680386 eV

  Self-consistency convergence accuracy:
  | Change of charge density      :  0.2085E-05
  | Change of sum of eigenvalues  :  0.2549E-04 eV
  | Change of total energy        :  0.2048E-07 eV

  End self-consistency iteration #    20       :  max(cpu_time)    wall_clock(cpu1)
  | Time for this iteration                    :        9.398 s           9.398 s
  | Charge density update                      :        5.407 s           5.407 s
  | Density mixing & preconditioning           :        0.173 s           0.173 s
  | Hartree multipole update                   :        0.002 s           0.002 s
  | Hartree multipole summation                :        0.388 s           0.389 s
  | Integration                                :        2.631 s           2.631 s
  | Solution of K.-S. eqns.                    :        0.794 s           0.795 s
  | Total energy evaluation                    :        0.001 s           0.001 s

  Partial memory accounting:
  | Current value for overall tracked memory usage:
  |   Minimum:       18.667 MB (on task  0)
  |   Maximum:       18.724 MB (on task  1)
  |   Average:       18.686 MB
  | Peak value for overall tracked memory usage:
  |   Minimum:       64.751 MB (on task  1 after allocating wave)
  |   Maximum:       68.025 MB (on task 16 after allocating wave)
  |   Average:       66.201 MB
  | Largest tracked array allocation so far:
  |   Minimum:       35.530 MB (hamiltonian_shell on task  1)
  |   Maximum:       38.658 MB (hamiltonian_shell on task 16)
  |   Average:       36.926 MB
  Note:  These values currently only include a subset of arrays which are explicitly tracked.
  The "true" memory usage will be greater.
------------------------------------------------------------

------------------------------------------------------------
          Begin self-consistency iteration #   21

  Date     :  20200319, Time     :  194445.393
------------------------------------------------------------
  Evaluating new KS density using the density matrix
  Evaluating density matrix
  Time summed over all CPUs for getting density from density matrix: real work      118.827 s, elapsed      121.995 s
  Integration grid: deviation in total charge (<rho> - N_e) =   8.800072E-12
  Pulay mixing of updated and previous charge densities.
  Renormalizing the density to the exact electron count on the 3D integration grid.
  | Formal number of electrons (from input files) :      24.0000000000
  | Integrated number of electrons on 3D grid     :      23.9999999825
  | Charge integration error                      :      -0.0000000175
  | Normalization factor for density and gradient :       1.0000000007

  Evaluating partitioned Hartree potential by multipole expansion.
  | Original multipole sum: apparent total charge =  -0.167995E-14
  | Sum of charges compensated after spline to logarithmic grids =   0.139855E-05
  | Analytical far-field extrapolation by fixed multipoles:
  | Hartree multipole sum: apparent total charge =  -0.160616E-14
  Summing up the Hartree potential.
  Time summed over all CPUs for potential: real work        8.705 s, elapsed        9.124 s
  | RMS charge density error from multipole expansion :   0.126144E-01
  | Average real-space part of the electrostatic potential :      0.45169337 eV

  Integrating Hamiltonian matrix: batch-based integration.
  Time summed over all CPUs for integration: real work       60.916 s, elapsed       61.837 s

  Updating Kohn-Sham eigenvalues and eigenvectors using ELSI and the (modified) LAPACK eigensolver.
  Starting LAPACK eigensolver
  Finished Cholesky decomposition
  | Time :     0.001 s
  Finished transformation to standard eigenproblem
  | Time :     0.001 s
  Finished solving standard eigenproblem
  | Time :     0.005 s
  Finished back-transformation of eigenvectors
  | Time :     0.000 s

  Obtaining occupation numbers and chemical potential using ELSI.
  | Chemical potential (Fermi level):    -6.32391486 eV
  What follows are estimated values for band gap, HOMO, LUMO, etc.
  | They are estimated on a discrete k-point grid and not necessarily exact.
  | For converged numbers, create a DOS and/or band structure plot on a denser k-grid.

  Highest occupied state (VBM) at     -7.22502651 eV (relative to internal zero)
  | Occupation number:      2.00000000
  | K-point:     742 at    0.357143    0.357143    0.000000 (in units of recip. lattice)

  Lowest unoccupied state (CBM) at    -6.28128766 eV (relative to internal zero)
  | Occupation number:      0.00000000
  | K-point:     742 at    0.357143    0.357143    0.000000 (in units of recip. lattice)

  ESTIMATED overall HOMO-LUMO gap:      0.94373886 eV between HOMO at k-point 742 and LUMO at k-point 742
  | This appears to be a direct band gap.
  The gap value is above 0.2 eV. Unless you are using a very sparse k-point grid,
  this system is most likely an insulator or a semiconductor.

  Total energy components:
  | Sum of eigenvalues            :         -89.59879954 Ha       -2438.10738506 eV
  | XC energy correction          :         -21.64420672 Ha        -588.96883117 eV
  | XC potential correction       :          27.80976143 Ha         756.74211111 eV
  | Free-atom electrostatic energy:         -66.62162784 Ha       -1812.86673124 eV
  | Hartree energy correction     :          -2.39408543 Ha         -65.14637910 eV
  | Entropy correction            :          -0.00000000 Ha          -0.00000000 eV
  | ---------------------------
  | Total energy                  :        -152.44895810 Ha       -4148.34721546 eV
  | Total energy, T -> 0          :        -152.44895810 Ha       -4148.34721546 eV  <-- do not rely on this value for anything but (periodic) metals
  | Electronic free energy        :        -152.44895810 Ha       -4148.34721546 eV

  Derived energy quantities:
  | Kinetic energy                :         151.99914291 Ha        4136.10712133 eV
  | Electrostatic energy          :        -282.80389429 Ha       -7695.48550562 eV
  | Energy correction for multipole
  | error in Hartree potential    :          -0.02751765 Ha          -0.74879341 eV
  | Sum of eigenvalues per atom                           :        -609.52684627 eV
  | Total energy (T->0) per atom                          :       -1037.08680387 eV  <-- do not rely on this value for anything but (periodic) metals
  | Electronic free energy per atom                       :       -1037.08680387 eV

  Self-consistency convergence accuracy:
  | Change of charge density      :  0.4499E-06
  | Change of sum of eigenvalues  : -0.2245E-04 eV
  | Change of total energy        : -0.7221E-08 eV

  Preliminary charge convergence reached. Turning off preconditioner.

  Writing Kohn-Sham eigenvalues.
  K-point:       1 at    0.000000    0.000000    0.000000 (in units of recip. lattice)

  State    Occupation    Eigenvalue [Ha]    Eigenvalue [eV]
      1       2.00000         -10.027700         -272.86759
      2       2.00000         -10.027699         -272.86758
      3       2.00000         -10.026074         -272.82335
      4       2.00000         -10.026074         -272.82335
      5       2.00000          -0.974204          -26.50944
      6       2.00000          -0.963226          -26.21072
      7       2.00000          -0.564497          -15.36073
      8       2.00000          -0.492353          -13.39760
      9       2.00000          -0.361638           -9.84068
     10       2.00000          -0.361636           -9.84061
     11       2.00000          -0.360973           -9.82257
     12       2.00000          -0.360970           -9.82249
     13       0.00000          -0.086247           -2.34689
     14       0.00000           0.057417            1.56239
     15       0.00000           0.057418            1.56242
     16       0.00000           0.059201            1.61093
     17       0.00000           0.059201            1.61095
     18       0.00000           0.139659            3.80032
     19       0.00000           0.170888            4.65010
     20       0.00000           0.178052            4.84504
     21       0.00000           0.213272            5.80342
     22       0.00000           0.220526            6.00082
     23       0.00000           0.430006           11.70106
     24       0.00000           0.604307           16.44403

  What follows are estimated values for band gap, HOMO, LUMO, etc.
  | They are estimated on a discrete k-point grid and not necessarily exact.
  | For converged numbers, create a DOS and/or band structure plot on a denser k-grid.

  Highest occupied state (VBM) at     -7.22502651 eV (relative to internal zero)
  | Occupation number:      2.00000000
  | K-point:     742 at    0.357143    0.357143    0.000000 (in units of recip. lattice)

  Lowest unoccupied state (CBM) at    -6.28128766 eV (relative to internal zero)
  | Occupation number:      0.00000000
  | K-point:     742 at    0.357143    0.357143    0.000000 (in units of recip. lattice)

  ESTIMATED overall HOMO-LUMO gap:      0.94373886 eV between HOMO at k-point 742 and LUMO at k-point 742
  | This appears to be a direct band gap.
  The gap value is above 0.2 eV. Unless you are using a very sparse k-point grid,
  this system is most likely an insulator or a semiconductor.

  Self-consistency cycle converged.

  End self-consistency iteration #    21       :  max(cpu_time)    wall_clock(cpu1)
  | Time for this iteration                    :        9.403 s           9.403 s
  | Charge density update                      :        5.409 s           5.409 s
  | Density mixing                             :        0.174 s           0.174 s
  | Hartree multipole update                   :        0.002 s           0.002 s
  | Hartree multipole summation                :        0.389 s           0.388 s
  | Integration                                :        2.631 s           2.632 s
  | Solution of K.-S. eqns.                    :        0.797 s           0.796 s
  | Total energy evaluation                    :        0.001 s           0.001 s

  Partial memory accounting:
  | Current value for overall tracked memory usage:
  |   Minimum:       18.667 MB (on task  0)
  |   Maximum:       18.724 MB (on task  1)
  |   Average:       18.686 MB
  | Peak value for overall tracked memory usage:
  |   Minimum:       64.751 MB (on task  1 after allocating wave)
  |   Maximum:       68.025 MB (on task 16 after allocating wave)
  |   Average:       66.201 MB
  | Largest tracked array allocation so far:
  |   Minimum:       35.530 MB (hamiltonian_shell on task  1)
  |   Maximum:       38.658 MB (hamiltonian_shell on task 16)
  |   Average:       36.926 MB
  Note:  These values currently only include a subset of arrays which are explicitly tracked.
  The "true" memory usage will be greater.
------------------------------------------------------------

  Energy and forces in a compact form:
  | Total energy uncorrected      :         -0.414834721546362E+04 eV
  | Total energy corrected        :         -0.414834721546362E+04 eV  <-- do not rely on this value for anything but (periodic) metals
  | Electronic free energy        :         -0.414834721546362E+04 eV

  ------------------------------------ 
  Start decomposition of the XC Energy 
  ------------------------------------ 
  X and C from original XC functional choice 
  Hartree-Fock Energy :          0.000000000 Ha              0.000000000 eV
  X Energy            :        -20.799103970 Ha           -565.972415381 eV
  C Energy            :         -0.845102747 Ha            -22.996415787 eV
  Total XC Energy     :        -21.644206717 Ha           -588.968831168 eV
  ------------------------------------ 
  LDA X and C from self-consistent density 
  X Energy LDA        :        -18.879424790 Ha           -513.735287092 eV
  C Energy LDA        :         -1.593739552 Ha            -43.367859753 eV
  ------------------------------------ 
  End decomposition of the XC Energy 
  ------------------------------------ 

------------------------------------------------------------

------------------------------------------------------------------------------
  Final output of selected total energy values:

  The following output summarizes some interesting total energy values
  at the end of a run (AFTER all relaxation, molecular dynamics, etc.).

  | Total energy of the DFT / Hartree-Fock s.c.f. calculation      :          -4148.347215464 eV
  | Final zero-broadening corrected energy (caution - metals only) :          -4148.347215464 eV
  | For reference only, the value of 1 Hartree used in FHI-aims is :             27.211384500 eV
  | For reference only, the overall average (free atom contribution
  | + realspace contribution) of the electrostatic potential after
  | s.c.f. convergence is                                          :            -13.589386394 eV

  Before relying on these values, please be sure to understand exactly which
  total energy value is referred to by a given number. Different objects may
  all carry the same name 'total energy'. Definitions:

  Total energy of the DFT / Hartree-Fock s.c.f. calculation:
  | Note that this energy does not include ANY quantities calculated after the
  | s.c.f. cycle, in particular not ANY RPA, MP2, etc. many-body perturbation terms.

  Final zero-broadening corrected energy:
  | For metallic systems only, a broadening of the occupation numbers at the Fermi
  | level can be extrapolated back to zero broadening by an electron-gas inspired
  | formula. For all systems that are not real metals, this value can be
  | meaningless and should be avoided.

------------------------------------------------------------------------------
  Methods described in the following list of references were used in this FHI-aims run.
  If you publish the results, please make sure to cite these reference if they apply.
  FHI-aims is an academic code, and for our developers (often, Ph.D. students
  and postdocs), scientific credit in the community is essential.
  Thank you for helping us!

  For any use of FHI-aims, please cite:

    Volker Blum, Ralf Gehrke, Felix Hanke, Paula Havu, Ville Havu,
    Xinguo Ren, Karsten Reuter, and Matthias Scheffler
    'Ab initio molecular simulations with numeric atom-centered orbitals'
    Computer Physics Communications 180, 2175-2196 (2009)
    http://dx.doi.org/10.1016/j.cpc.2009.06.022


  The provided symmetry information was generated with SPGlib:

    Atsushi Togo, Yusuke Seto, Dimitar Pashov
    SPGlib 1.7.3 obtained from http://spglib.sourceforge.net
    Copyright (C) 2008 Atsushi Togo


  The ELSI infrastructure was used in your run to solve the Kohn-Sham electronic structure.
  Please check out http://elsi-interchange.org to learn more.
  If scalability is important for your project, please acknowledge ELSI by citing:

    V. W-z. Yu, F. Corsetti, A. Garcia, W. P. Huhn, M. Jacquelin, W. Jia,
    B. Lange, L. Lin, J. Lu, W. Mi, A. Seifitokaldani, A. Vazquez-Mayagoitia,
    C. Yang, H. Yang, and V. Blum
    'ELSI: A unified software interface for Kohn-Sham electronic structure solvers'
    Computer Physics Communications 222, 267-285 (2018).
    http://dx.doi.org/10.1016/j.cpc.2017.09.007


  For the real-space grid partitioning and parallelization used in this calculation, please cite:

    Ville Havu, Volker Blum, Paula Havu, and Matthias Scheffler,
    'Efficient O(N) integration for all-electron electronic structure calculation'
    'using numerically tabulated basis functions'
    Journal of Computational Physics 228, 8367-8379 (2009).
    http://dx.doi.org/10.1016/j.jcp.2009.08.008

  Of course, there are many other important community references, e.g., those cited in the
  above references. Our list is limited to references that describe implementations in the
  FHI-aims code. The reason is purely practical (length of this list) - please credit others as well.

------------------------------------------------------------
          Leaving FHI-aims.
          Date     :  20200319, Time     :  194454.811

          Computational steps:
          | Number of self-consistency cycles          :           21
          | Number of SCF (re)initializations          :            1

          Detailed time accounting                     :  max(cpu_time)    wall_clock(cpu1)
          | Total time                                 :      205.175 s         205.538 s
          | Preparation time                           :        0.141 s           0.173 s
          | Boundary condition initalization           :        0.176 s           0.179 s
          | Grid partitioning                          :        0.087 s           0.091 s
          | Preloading free-atom quantities on grid    :        0.009 s           0.009 s
          | Free-atom superposition energy             :        0.055 s           0.055 s
          | Total time for integrations                :       60.569 s          60.581 s
          | Total time for solution of K.-S. equations :       17.831 s          17.867 s
          | Total time for density update              :      113.122 s         113.128 s
          | Total time for mixing & preconditioning    :        3.634 s           3.638 s
          | Total time for Hartree multipole update    :        0.039 s           0.040 s
          | Total time for Hartree multipole sum       :        8.174 s           8.172 s
          | Total time for total energy evaluation     :        0.021 s           0.026 s
          | Total time for scaled ZORA corrections     :        0.000 s           0.000 s

          Partial memory accounting:
          | Residual value for overall tracked memory usage across tasks:     0.000000 MB (should be 0.000000 MB)
          | Peak values for overall tracked memory usage:
          |   Minimum:       64.751 MB (on task  1 after allocating wave)
          |   Maximum:       68.025 MB (on task 16 after allocating wave)
          |   Average:       66.201 MB
          | Largest tracked array allocation:
          |   Minimum:       35.530 MB (hamiltonian_shell on task  1)
          |   Maximum:       38.658 MB (hamiltonian_shell on task 16)
          |   Average:       36.926 MB
          Note:  These values currently only include a subset of arrays which are explicitly tracked.
          The "true" memory usage will be greater.

          Have a nice day.
------------------------------------------------------------
