------------------------------------------------------------
          Invoking FHI-aims ...

          When using FHI-aims, please cite the following reference:

            Volker Blum, Ralf Gehrke, Felix Hanke, Paula Havu,
            Ville Havu, Xinguo Ren, Karsten Reuter, and Matthias Scheffler,
            'Ab Initio Molecular Simulations with Numeric Atom-Centered Orbitals',
            Computer Physics Communications 180, 2175-2196 (2009)

          In addition, many other developments in FHI-aims are likely important for
          your particular application. A partial list of references is given at the end of
          this file. Thank you for giving credit to the authors of these developments.

          For any questions about FHI-aims, please visit our slack channel at

            https://fhi-aims.slack.com

          and our main development and support site at

            https://aims-git.rz-berlin.mpg.de .

          The latter site, in particular, has a wiki to collect information, as well
          as an issue tracker to log discussions, suggest improvements, and report issues
          or bugs. https://aims-git.rz-berlin.mpg.de is also the main development site
          of the project and all new and updated code versions can be obtained there.
          Please send an email to aims-coordinators@fhi-berlin.mpg.de and we will add
          you to these sites. They are for you and everyone is welcome there.

------------------------------------------------------------



  Date     :  20201221, Time     :  165847.464
  Time zero on CPU 1             :   0.273090000000000E-01  s.
  Internal wall clock time zero  :           377801927.464  s.

  FHI-aims created a unique identifier for this run for later identification
  aims_uuid : FA047155-7F93-4E02-AC15-988113EE0896

  Build configuration of the current instance of FHI-aims
  -------------------------------------------------------
  FHI-aims version      : 201122
  Commit number         : 9f287233b
  CMake host system     : Linux-4.19.128-microsoft-standard
  CMake version         : 3.19.1
  Fortran compiler      : /home/rkempt/miniconda3/envs/aims-env/bin/mpifort (GNU) version 7.3.0
  Fortran compiler flags: -O2 -ffree-line-length-none
  C compiler            : /usr/bin/gcc (GNU) version 9.3.0
  C compiler flags      : -O2 -funroll-loops -std=gnu99
  Using MPI
  Using LibXC
  Using i-PI
  Using RLSY
  Linking against: /home/rkempt/miniconda3/envs/aims-env/lib/libmkl_intel_lp64.so
                   /home/rkempt/miniconda3/envs/aims-env/lib/libmkl_sequential.so
                   /home/rkempt/miniconda3/envs/aims-env/lib/libmkl_core.so

  Using        4 parallel tasks.
  Task        0 on host DESKTOP-VF3RMOI reporting.
  Task        1 on host DESKTOP-VF3RMOI reporting.
  Task        2 on host DESKTOP-VF3RMOI reporting.
  Task        3 on host DESKTOP-VF3RMOI reporting.

  Performing system and environment tests:
  *** Environment variable OMP_NUM_THREADS is not set
  *** For performance reasons you might want to set it to 1
  | Checking for ScaLAPACK...
  | No ScaLAPACK compiled in.

  Obtaining array dimensions for all initial allocations:
  
  -----------------------------------------------------------------------
  Parsing control.in (first pass over file, find array dimensions only).
  The contents of control.in will be repeated verbatim below
  unless switched off by setting 'verbatim_writeout .false.' .
  in the first line of control.in .
  -----------------------------------------------------------------------
  
  #===============================================================================
  # FHI-aims file: control.in
  # Created using the Atomic Simulation Environment (ASE)
  # Mon Dec 21 16:51:22 2020
  #===============================================================================
  xc                                 pbe
  # include_spin_orbit
  ## Common choices of dispersion methods:
  # 	 vdw_correction_hirshfeld
  # 	 many_body_dispersion
  # 	 many_body_dispersion_nl
  relativistic                       atomic_zora scalar
  spin                               none
  k_grid 	 	 12 12 12
  check_stacksize .false.
  ### SCF settings
  adjust_scf 	 always 	 3
  sc_iter_limit 	 100
  # frozen_core_scf 	 .true.
  # charge_mix_param 	 0.02
  # occupation_type 	 gaussian 	 0.1
  # sc_accuracy_rho 	 1E-6 	 	 # electron density convergence
  # elsi_restart 	 read_and_write 	 1000
  #===============================================================================
  
  ################################################################################
  #
  #  FHI-aims code project
  #  VB, Fritz-Haber Institut, 2009
  #
  #  Suggested "light" defaults for Si atom (to be pasted into control.in file)
  #  Be sure to double-check any results obtained with these settings for post-processing,
  #  e.g., with the "tight" defaults and larger basis sets.
  #
  ################################################################################
    species        Si
  #     global species definitions
      nucleus             14
      mass                28.0855
  #
      l_hartree           4
  #
      cut_pot             3.5          1.5  1.0
      basis_dep_cutoff    1e-4
  #
      radial_base         42 5.0
      radial_multiplier   1
      angular_grids       specified
        division   0.5866   50
        division   0.9616  110
        division   1.2249  194
        division   1.3795  302
  #      division   1.4810  434
  #      division   1.5529  590
  #      division   1.6284  770
  #      division   1.7077  974
  #      division   2.4068 1202
  #      outer_grid   974
        outer_grid 302
  ################################################################################
  #
  #  Definition of "minimal" basis
  #
  ################################################################################
  #     valence basis states
      valence      3  s   2.
      valence      3  p   2.
  #     ion occupancy
      ion_occ      3  s   1.
      ion_occ      3  p   1.
  ################################################################################
  #
  #  Suggested additional basis functions. For production calculations,
  #  uncomment them one after another (the most important basis functions are
  #  listed first).
  #
  #  Constructed for dimers: 1.75 A, 2.0 A, 2.25 A, 2.75 A, 3.75 A
  #
  ################################################################################
  #  "First tier" - improvements: -571.96 meV to -37.03 meV
       hydro 3 d 4.2
       hydro 2 p 1.4
       hydro 4 f 6.2
       ionic 3 s auto
  #  "Second tier" - improvements: -16.76 meV to -3.03 meV
  #     hydro 3 d 9
  #     hydro 5 g 9.4
  #     hydro 4 p 4
  #     hydro 1 s 0.65
  #  "Third tier" - improvements: -3.89 meV to -0.60 meV
  #     ionic 3 d auto
  #     hydro 3 s 2.6
  #     hydro 4 f 8.4
  #     hydro 3 d 3.4
  #     hydro 3 p 7.8
  #  "Fourth tier" - improvements: -0.33 meV to -0.11 meV
  #     hydro 2 p 1.6
  #     hydro 5 g 10.8
  #     hydro 5 f 11.2
  #     hydro 3 d 1
  #     hydro 4 s 4.5
  #  Further basis functions that fell out of the optimization - noise
  #  level... < -0.08 meV
  #     hydro 4 d 6.6
  #     hydro 5 g 16.4
  #     hydro 4 d 9
  
  -----------------------------------------------------------------------
  Completed first pass over input file control.in .
  -----------------------------------------------------------------------
  
  
  -----------------------------------------------------------------------
  Parsing geometry.in (first pass over file, find array dimensions only).
  The contents of geometry.in will be repeated verbatim below
  unless switched off by setting 'verbatim_writeout .false.' .
  in the first line of geometry.in .
  -----------------------------------------------------------------------
  
  #=======================================================
  # FHI-aims file: ./geometry.in
  # Created using the Atomic Simulation Environment (ASE)
  # Tue Nov 10 17:29:52 2020
  #=======================================================
  lattice_vector 0.0000000000000000 2.7343639799999999 2.7343639799999999
  lattice_vector 2.7343639799999999 0.0000000000000000 2.7343639799999999
  lattice_vector 2.7343639799999999 2.7343639799999999 0.0000000000000000
  atom_frac 0.0000000000000000 0.0000000000000000 -0.0000000000000000 Si
  atom_frac 0.2500000000000000 0.2500000000000000 0.2500000000000000 Si
  
  -----------------------------------------------------------------------
  Completed first pass over input file geometry.in .
  -----------------------------------------------------------------------
  

  Basic array size parameters:
  | Number of species                 :        1
  | Number of atoms                   :        2
  | Number of lattice vectors         :        3
  | Max. basis fn. angular momentum   :        3
  | Max. atomic/ionic basis occupied n:        3
  | Max. number of basis fn. types    :        3
  | Max. radial fns per species/type  :        5
  | Max. logarithmic grid size        :     1346
  | Max. radial integration grid size :       42
  | Max. angular integration grid size:      302
  | Max. angular grid division number :        8
  | Radial grid for Hartree potential :     1346
  | Number of spin channels           :        1

------------------------------------------------------------
          Reading file control.in.
------------------------------------------------------------
  XC: Using PBE gradient-corrected functionals.
  Scalar relativistic treatment of kinetic energy: on-site free-atom approximation to ZORA.
  Spin treatment: No spin polarisation.
  Found k-point grid:        12        12        12
  S.C.F. convergence parameters will be adjusted in iteration number     3 of each new s.c.f. cycle.
  Maximum number of s.-c. iterations  :   100

  Reading configuration options for species Si                  .
  | Found nuclear charge :  14.0000
  | Found atomic mass :    28.085500000000000      amu
  | Found l_max for Hartree potential  :   4
  | Found cutoff potl. onset [A], width [A], scale factor :    3.50000    1.50000    1.00000
  | Threshold for basis-dependent cutoff potential is   0.100000E-03
  | Found data for basic radial integration grid :    42 points, outermost radius =    5.000 A
  | Found multiplier for basic radial grid :   1
  | Found angular grid specification: user-specified.
  | Specified grid contains     5 separate shells.
  | Check grid settings after all constraints further below.
  | Found free-atom valence shell :  3 s   2.000
  | Found free-atom valence shell :  3 p   2.000
  | Found free-ion valence shell :  3 s   1.000
  | Found free-ion valence shell :  3 p   1.000
  | Found hydrogenic basis function :  3 d   4.200
  | Found hydrogenic basis function :  2 p   1.400
  | Found hydrogenic basis function :  4 f   6.200
  | Found ionic basis function :  3 s , default cutoff radius.
  Species Si                  : Missing cutoff potential type.
  Defaulting to exp(1/x)/(1-x)^2 type cutoff potential.
  Species Si: No 'logarithmic' tag. Using default grid for free atom:
  | Default logarithmic grid data [bohr] : 0.1000E-03 0.1000E+03 0.1012E+01
  | Will include ionic basis functions of  2.0-fold positive Si                   ion.
  Species Si: On-site basis accuracy parameter (for Gram-Schmidt orthonormalisation) not specified.
  Using default value basis_acc =  0.1000000E-03.
  Species Si                  : Using default innermost maximum threshold i_radial=  2 for radial functions.
  Species Si                  : Default cutoff onset for free atom density etc. : 0.35000000E+01 AA.
  Species Si                  : Basic radial grid will be enhanced according to radial_multiplier =   1, to contain    42 grid points.

  Finished reading input file 'control.in'.

------------------------------------------------------------


------------------------------------------------------------
          Reading geometry description geometry.in.
------------------------------------------------------------
  | The smallest distance between any two atoms is         2.36802867 AA.
  | The first atom of this pair is atom number                      1 .
  | The second atom of this pair is atom number                     2 .
  | Wigner-Seitz cell of the first atom image           0     1     0 .
  | (The Wigner-Seitz cell of the second atom is 0 0 0  by definition.)

  Symmetry information by spglib:
  | Precision set to  0.1E-04
  | Number of Operations  : 48
  | Space group           : 227
  | International         : Fd-3m
  | Schoenflies           : Oh^7
  Input structure read successfully.
  The structure contains        2 atoms,  and a total of         28.000 electrons.

  Input geometry:
  | Unit cell:
  |        0.00000000        2.73436398        2.73436398
  |        2.73436398        0.00000000        2.73436398
  |        2.73436398        2.73436398        0.00000000
  | Atomic structure:
  |       Atom                x [A]            y [A]            z [A]
  |    1: Species Si            0.00000000        0.00000000        0.00000000
  |    2: Species Si            1.36718199        1.36718199        1.36718199

  Lattice parameters for 3D lattice (in Angstroms) :     3.866975    3.866975    3.866975
  Angle(s) between unit vectors (in degrees)       :    60.000000   60.000000   60.000000


  Quantities derived from the lattice vectors:
  | Reciprocal lattice vector 1: -1.148930  1.148930  1.148930
  | Reciprocal lattice vector 2:  1.148930 -1.148930  1.148930
  | Reciprocal lattice vector 3:  1.148930  1.148930 -1.148930
  | Unit cell volume                               :   0.408883E+02  A^3

  Fractional coordinates:
                         L1                L2                L3
       atom_frac         0.00000000        0.00000000        0.00000000  Si
       atom_frac         0.25000000        0.25000000        0.25000000  Si


  Finished reading input file 'control.in'.


------------------------------------------------------------
          Reading geometry description geometry.in.
------------------------------------------------------------

  Consistency checks for the contents of control.in are next.

  MPI_IN_PLACE appears to work with this MPI implementation.
  | Keeping use_mpi_in_place .true. (see manual).
  Target number of points in a grid batch is not set. Defaulting to  100
  Method for grid partitioning is not set. Defaulting to parallel hash+maxmin partitioning.
  Batch size limit is not set. Defaulting to    200
  By default, will store active basis functions for each batch.
  If in need of memory, prune_basis_once .false. can be used to disable this option.
  communication_type for Hartree potential was not specified.
  Defaulting to calc_hartree .
  Defaulting to Pulay charge density mixer.
  Pulay mixer: Number of relevant iterations not set.
  Defaulting to    8 iterations.
  Pulay mixer: Number of initial linear mixing iterations not set.
  Defaulting to    0 iterations.
  Work space size for distributed Hartree potential not set.
  Defaulting to   0.200000E+03 MB.
  Mixing parameter for charge density mixing has not been set.
  Using default: charge_mix_param =     0.0500.
  The mixing parameter will be adjusted in iteration number     3 of each s.c.f. cycle (i.e., each geometry step).
  Algorithm-dependent basis array size parameters:
  | n_max_pulay                         :        8
  Presetting      1001 iterations before the initial mixing cycle
  is restarted anyway using the sc_init_iter criterion / keyword.
  Presetting a factor      1.000 between actual scf density residual
  and density convergence criterion sc_accuracy_rho below which sc_init_iter
  takes no effect.
 * No s.c.f. convergence criteria (sc_accuracy_*) were provided in control.in.
 * The run will proceed with a reasonable default guess, but please check whether.
 * the s.c.f. cycles seem to take too much or too little time.
  Calculation of forces was not defined in control.in. No forces will be calculated.
  Geometry relaxation not requested: no relaxation will be performed.
 * Notice: The s.c.f. convergence criterion sc_accuracy_rho was not provided.
 * We used to stop in this case, and ask the user to provide reasonable
 * scf convergence criteria. However, this led some users to employ criteria
 * that led to extremely long run times, e.g., for simple relaxation.
 * We now preset a default value for sc_accuracy_rho if it is not set.
 * You may still wish to check if this setting is too tight or too loose for your needs.
 * Based on n_atoms, FHI-aims chose sc_accuracy_rho =  0.100000E-05 .
  No accuracy limit for integral partition fn. given. Defaulting to  0.1000E-14.
  No threshold value for u(r) in integrations given. Defaulting to  0.1000E-05.
  No occupation type (smearing scheme) given. Defaulting to Gaussian broadening, width =  0.1000E-01 eV.
  The width will be adjusted in iteration number     3 of each s.c.f. cycle (i.e., each geometry step).
  S.C.F. convergence parameters will be adjusted in iteration number     3 of the first full s.c.f. cycle only.
  No accuracy for occupation numbers given. Defaulting to  0.1000E-12.
  No threshold value for occupation numbers given. Defaulting to  0.0000E+00.
  No accuracy for fermi level given. Defaulting to  0.1000E-19.
  Maximum # of iterations to find E_F not set. Defaulting to  200.
  Preferred method for the eigenvalue solver ('KS_method') not specified in 'control.in'.
  Defaulting to serial version, LAPACK (via ELSI), since more k-points than CPUs available.
  Will not use alltoall communication since running on < 1024 CPUs.
  Threshold for basis singularities not set.
  Default threshold for basis singularities:  0.1000E-04
  partition_type (choice of integration weights) for integrals was not specified.
  | Using a version of the partition function of Stratmann and coworkers ('stratmann_sparse').
  | At each grid point, the set of atoms used to build the partition table is smoothly restricted to
  | only those atoms whose free-atom density would be non-zero at that grid point.
  Partitioning for Hartree potential was not defined. Using partition_type for integrals.
  | Adjusted default value of keyword multip_moments_threshold to:       0.10000000E-11
  | This value may affect high angular momentum components of the Hartree potential in periodic systems.
  Angular momentum expansion for Kerker preconditioner not set explicitly.
  | Using default value of   0
  No explicit requirement for turning off preconditioner.
  | By default, it will be turned off when the charge convergence reaches
  | sc_accuracy_rho  =   0.100000E-05
  No special mixing parameter while Kerker preconditioner is on.
  Using default: charge_mix_param =     0.0500.
  No q(lm)/r^(l+1) cutoff set for long-range Hartree potential.
  | Using default value of  0.100000E-09 .
  | Verify using the multipole_threshold keyword.
  Defaulting to new monopole extrapolation.
  Density update method: automatic selection selected.
  Using density matrix based charge density update.
  Using density matrix based charge density update.
  Using packed matrix style: index .
  Defaulting to use time-reversal symmetry for k-point grid.
  Charge integration errors on the 3D integration grid will be compensated
  by explicit normalization and distribution of residual charges.
  Use the "compensate_multipole_errors" flag to change this behaviour.
  Set 'collect_eigenvectors' to be '.true.' for all serial calculations. This is mandatory.
  Set 'collect_eigenvectors' to be '.true.' for KS_method lapack_fast and serial.

  Consistency checks for the contents of geometry.in are next.


  Range separation radius for Ewald summation (hartree_convergence_parameter):      3.91873589 bohr.
  Number of empty states per atom not set in control.in - providing a guess from actual geometry.
  | Total number of empty states used during s.c.f. cycle:        6
  If you use a very high smearing, use empty_states (per atom!) in control.in to increase this value.

  Structure-dependent array size parameters: 
  | Maximum number of distinct radial functions  :        9
  | Maximum number of basis functions            :       50
  | Number of Kohn-Sham states (occupied + empty):       20
------------------------------------------------------------

------------------------------------------------------------
          Preparing all fixed parts of the calculation.
------------------------------------------------------------
  Determining machine precision:
     2.2250738585072014E-308
  Setting up grids for atomic and cluster calculations.

  Creating wave function, potential, and density for free atoms.

  Species: Si

  List of occupied orbitals and eigenvalues:
    n    l              occ      energy [Ha]    energy [eV]
    1    0           2.0000       -65.767597     -1789.6274
    2    0           2.0000        -5.115610      -139.2028
    3    0           2.0000        -0.388877       -10.5819
    2    1           6.0000        -3.500197       -95.2452
    3    1           2.0000        -0.140803        -3.8315


  Adding cutoff potential to free-atom effective potential.
  Creating fixed part of basis set: Ionic, confined, hydrogenic.

  Si                   ion:

  List of free ionic orbitals and eigenvalues:
    n    l      energy [Ha]    energy [eV]
    1    0       -66.641157     -1813.3982
    2    0        -5.964274      -162.2962
    3    0        -1.073878       -29.2217
    2    1        -4.350005      -118.3697
    3    1        -0.776571       -21.1316


  List of ionic basis orbitals and eigenvalues:
    n    l      energy [Ha]    energy [eV]    outer radius [A]
    3    0        -1.073857       -29.2211       4.214062


  Si                   hydrogenic:

  List of hydrogenic basis orbitals: 
    n    l      effective z      eigenvalue [eV]  inner max. [A]     outer max. [A]     outer radius [A]   
    3    2         4.200000       -26.6624           1.139231           1.139231           4.534782
    2    1         1.400000        -6.4613           1.472672           1.472672           4.590560
    4    3         6.200000       -32.6778           1.368518           1.368518           4.534782

  Creating atomic-like basis functions for current effective potential.

  Species Si                  :

  List of atomic basis orbitals and eigenvalues:
    n    l      energy [Ha]    energy [eV]    outer radius [A]
    1    0       -65.767597     -1789.6274       0.789468
    2    0        -5.115610      -139.2028       2.815114
    3    0        -0.388877       -10.5819       4.534782
    2    1        -3.500197       -95.2452       3.259919
    3    1        -0.140803        -3.8315       4.590560

  Assembling full basis from fixed parts.
  | Species Si :   atomic orbital   1 s accepted.
  | Species Si :   atomic orbital   2 s accepted.
  | Species Si :    ionic orbital   3 s accepted.
  | Species Si :   atomic orbital   3 s accepted.
  | Species Si :   atomic orbital   2 p accepted.
  | Species Si :   atomic orbital   3 p accepted.
  | Species Si :    hydro orbital   2 p accepted.
  | Species Si :    hydro orbital   3 d accepted.
  | Species Si :    hydro orbital   4 f accepted.

  Basis size parameters after reduction:
  | Total number of radial functions:        9
  | Total number of basis functions :       50

  Per-task memory consumption for arrays in subroutine allocate_ext:
  |           3.102808MB.
  Testing on-site integration grid accuracy.
  |  Species  Function  <phi|h_atom|phi> (log., in eV)  <phi|h_atom|phi> (rad., in eV)
           1        1              -1789.6273740966              -1789.6266345813
           1        2               -139.2028173376               -139.2028132357
           1        3                -10.2237226190                -10.2235219160
           1        4                  5.6355365073                  5.5558633521 ***
           1        5                -95.2452114632                -95.2452114537
           1        6                 -3.8413965043                 -3.8571292824
           1        7                  6.4035522332                  6.2277973139 ***
           1        8                  6.3860095444                  6.3839142324
           1        9                 19.3722793793                 19.3677446767
 * Note: Onsite integrals marked "***" above are less accurate than
 * onsite_accuracy_threshold =    0.03000 eV. Usually, this is harmless.
 * When in doubt, tighten the "radial" and/or "radial_multiplier" flags to check.

  Preparing densities etc. for the partition functions (integrals / Hartree potential).

  Preparations completed.
  max(cpu_time)          :      0.186 s.
  Wall clock time (cpu1) :      0.184 s.
------------------------------------------------------------

------------------------------------------------------------
          Begin self-consistency loop: Initialization.

          Date     :  20201221, Time     :  165847.707
------------------------------------------------------------

  Initializing index lists of integration centers etc. from given atomic structure:
  Mapping all atomic coordinates to central unit cell.

  Initializing the k-points
  Using symmetry for reducing the k-points
  | k-points reduced from:     1728 to      868
  | Number of k-points                             :       868
  The eigenvectors in the calculations are COMPLEX.
  | K-points in task   0:       217
  | K-points in task   1:       217
  | K-points in task   2:       217
  | K-points in task   3:       217
  | Number of basis functions in the Hamiltonian integrals :      2161
  | Number of basis functions in a single unit cell        :        50
  | Number of centers in hartree potential         :       732
  | Number of centers in hartree multipole         :       318
  | Number of centers in electron density summation:       198
  | Number of centers in basis integrals           :       198
  | Number of centers in integrals                 :       101
  | Number of centers in hamiltonian               :       198
  | Consuming       1519 KiB for k_phase.
  | Number of super-cells (origin) [n_cells]                     :        2197
  | Number of super-cells (after PM_index) [n_cells]             :         112
  | Number of super-cells in hamiltonian [n_cells_in_hamiltonian]:         112
  | Size of matrix packed + index [n_hamiltonian_matrix_size] :       86523
  | Estimated reciprocal-space cutoff momentum G_max:         2.38133540 bohr^-1 .
  | Reciprocal lattice points for long-range Hartree potential:      58
  Partitioning the integration grid into batches with parallel hashing+maxmin method.
  | Number of batches:      140
  | Maximal batch size:     107
  | Minimal batch size:      50
  | Average batch size:      80.057
  | Standard deviation of batch sizes:      14.801

  Integration load balanced across     4 MPI tasks.
  Work distribution over tasks is as follows:
  Task     0 has       2849 integration points.
  Task     1 has       2789 integration points.
  Task     2 has       2766 integration points.
  Task     3 has       2804 integration points.
  Initializing partition tables, free-atom densities, potentials, etc. across the integration grid (initialize_grid_storage).
  | initialize_grid_storage: Actual outermost partition radius vs. multipole_radius_free
  | (-- VB: in principle, multipole_radius_free should be larger, hence this output)
  | Species        1: Confinement radius =              4.999999999999999 AA, multipole_radius_free =              5.000694715736543 AA.
  | Species        1: outer_partition_radius set to              5.000694715736543 AA .
  | The sparse table of interatomic distances needs        212.76 kbyte instead of       313.63 kbyte of memory.
  | Net number of integration points:    11208
  | of which are non-zero points    :     9820
  | Numerical average free-atom electrostatic potential    :    -12.85673500 eV
  Renormalizing the initial density to the exact electron count on the 3D integration grid.
  | Initial density: Formal number of electrons (from input files) :      28.0000000000
  | Integrated number of electrons on 3D grid     :      28.0047528210
  | Charge integration error                      :       0.0047528210
  | Normalization factor for density and gradient :       0.9998302852
  Renormalizing the free-atom superposition density to the exact electron count on the 3D integration grid.
  | Formal number of electrons (from input files) :      28.0000000000
  | Integrated number of electrons on 3D grid     :      28.0047528210
  | Charge integration error                      :       0.0047528210
  | Normalization factor for density and gradient :       0.9998302852
  Obtaining max. number of non-zero basis functions in each batch (get_n_compute_maxes).
  | Maximal number of non-zero basis functions:      686 in task     0
  | Maximal number of non-zero basis functions:      691 in task     1
  | Maximal number of non-zero basis functions:      691 in task     2
  | Maximal number of non-zero basis functions:      674 in task     3
  Allocating        3.311 MB for KS_eigenvector_complex
  Integrating Hamiltonian matrix: batch-based integration.
  Time summed over all CPUs for integration: real work        1.331 s, elapsed        1.355 s
  Integrating overlap matrix.
  Time summed over all CPUs for integration: real work        0.894 s, elapsed        0.920 s
  Decreasing sparse matrix size:
  | Tolerance:  0.1000E-12
  Hamiltonian matrix
  | Array has    76970 nonzero elements out of    86523 elements
  | Sparsity factor is 0.110
  Overlap matrix
  | Array has    72538 nonzero elements out of    86523 elements
  | Sparsity factor is 0.162
  New size of hamiltonian matrix:       77471

  Updating Kohn-Sham eigenvalues and eigenvectors using ELSI and the (modified) LAPACK eigensolver.
  Singularity check in k-point 4, task 0 (analysis for other k-points/tasks may follow below):
  Overlap matrix is not singular
  | Lowest and highest eigenvalues :  0.6088E-03,  0.7232E+01
  Finished singularity check of overlap matrix
  | Time :     0.000 s
  Starting LAPACK eigensolver
  Finished Cholesky decomposition
  | Time :     0.001 s
  Finished transformation to standard eigenproblem
  | Time :     0.000 s
  Finished solving standard eigenproblem
  | Time :     0.001 s
  Finished back-transformation of eigenvectors
  | Time :     0.000 s

  Obtaining occupation numbers and chemical potential using ELSI.
  | Chemical potential (Fermi level):    -5.26272897 eV
  Writing Kohn-Sham eigenvalues.
  K-point:       1 at    0.000000    0.000000    0.000000 (in units of recip. lattice)

  State    Occupation    Eigenvalue [Ha]    Eigenvalue [eV]
      1       2.00000         -65.787897        -1790.17976
      2       2.00000         -65.787897        -1790.17976
      3       2.00000          -5.140312         -139.87499
      4       2.00000          -5.140054         -139.86800
      5       2.00000          -3.524910          -95.91768
      6       2.00000          -3.524910          -95.91768
      7       2.00000          -3.524910          -95.91768
      8       2.00000          -3.524336          -95.90206
      9       2.00000          -3.524336          -95.90206
     10       2.00000          -3.524336          -95.90206
     11       2.00000          -0.655472          -17.83629
     12       2.00000          -0.224530           -6.10976
     13       2.00000          -0.224530           -6.10976
     14       2.00000          -0.224530           -6.10976
     15       0.00000          -0.122981           -3.34650
     16       0.00000          -0.122981           -3.34650
     17       0.00000          -0.122981           -3.34650
     18       0.00000          -0.109760           -2.98671
     19       0.00000           0.073311            1.99490
     20       0.00000           0.073311            1.99490

  What follows are estimated values for band gap, HOMO, LUMO, etc.
  | They are estimated on a discrete k-point grid and not necessarily exact.
  | For converged numbers, create a DOS and/or band structure plot on a denser k-grid.

  Highest occupied state (VBM) at     -6.10976192 eV (relative to internal zero)
  | Occupation number:      2.00000000
  | K-point:       1 at    0.000000    0.000000    0.000000 (in units of recip. lattice)

  Lowest unoccupied state (CBM) at    -5.22053843 eV (relative to internal zero)
  | Occupation number:      0.00000000
  | K-point:     690 at    0.583333    0.000000    0.583333 (in units of recip. lattice)

  ESTIMATED overall HOMO-LUMO gap:      0.88922349 eV between HOMO at k-point 1 and LUMO at k-point 690
  | This appears to be an indirect band gap.
  | Smallest direct gap :      2.73039573 eV for k_point 53 at    0.000000    0.500000    0.000000 (in units of recip. lattice)
  The gap value is above 0.2 eV. Unless you are using a very sparse k-point grid,
  this system is most likely an insulator or a semiconductor.
  Calculating total energy contributions from superposition of free atom densities.

  Total energy components:
  | Sum of eigenvalues            :        -329.25249713 Ha       -8959.41629689 eV
  | XC energy correction          :         -41.71276369 Ha       -1135.06205122 eV
  | XC potential correction       :          53.86954608 Ha        1465.86493127 eV
  | Free-atom electrostatic energy:        -263.64579720 Ha       -7174.16715932 eV
  | Hartree energy correction     :          -0.00000000 Ha          -0.00000000 eV
  | Entropy correction            :          -0.00000000 Ha          -0.00000000 eV
  | ---------------------------
  | Total energy                  :        -580.74151193 Ha      -15802.78057617 eV
  | Total energy, T -> 0          :        -580.74151193 Ha      -15802.78057617 eV  <-- do not rely on this value for anything but (periodic) metals
  | Electronic free energy        :        -580.74151193 Ha      -15802.78057617 eV

  Derived energy quantities:
  | Kinetic energy                :         582.28107026 Ha       15844.67408986 eV
  | Electrostatic energy          :       -1121.30981850 Ha      -30512.39261481 eV
  | Energy correction for multipole
  | error in Hartree potential    :           0.00000000 Ha           0.00000000 eV
  | Sum of eigenvalues per atom                           :       -4479.70814845 eV
  | Total energy (T->0) per atom                          :       -7901.39028808 eV  <-- do not rely on this value for anything but (periodic) metals
  | Electronic free energy per atom                       :       -7901.39028808 eV
  Initialize hartree_potential_storage
  Max. number of atoms included in rho_multipole:            2

  End scf initialization - timings             :  max(cpu_time)    wall_clock(cpu1)
  | Time for scf. initialization               :        1.304 s           1.306 s
  | Boundary condition initialization          :        0.137 s           0.137 s
  | Integration                                :        0.590 s           0.591 s
  | Solution of K.-S. eqns.                    :        0.385 s           0.386 s
  | Grid partitioning                          :        0.030 s           0.030 s
  | Preloading free-atom quantities on grid    :        0.123 s           0.129 s
  | Free-atom superposition energy             :        0.029 s           0.029 s
  | Total energy evaluation                    :        0.000 s           0.001 s

  Partial memory accounting:
  | Current value for overall tracked memory usage:
  |   Minimum:        4.789 MB (on task 0)
  |   Maximum:        4.789 MB (on task 0)
  |   Average:        4.789 MB
  | Peak value for overall tracked memory usage:
  |   Minimum:       10.094 MB (on task 3 after allocating wave)
  |   Maximum:       10.313 MB (on task 1 after allocating wave)
  |   Average:       10.242 MB
  | Largest tracked array allocation so far:
  |   Minimum:        3.466 MB (hamiltonian_shell on task 3)
  |   Maximum:        3.643 MB (hamiltonian_shell on task 1)
  |   Average:        3.585 MB
  Note:  These values currently only include a subset of arrays which are explicitly tracked.
  The "true" memory usage will be greater.
------------------------------------------------------------

------------------------------------------------------------
          Begin self-consistency iteration #    1

  Date     :  20201221, Time     :  165849.015
------------------------------------------------------------
  Evaluating new KS density using the density matrix
  Evaluating density matrix
  Time summed over all CPUs for getting density from density matrix: real work        2.788 s, elapsed        2.868 s
  Integration grid: deviation in total charge (<rho> - N_e) =   8.398615E-12
  Pulay mixing of updated and previous charge densities.
  Renormalizing the density to the exact electron count on the 3D integration grid.
  | Formal number of electrons (from input files) :      28.0000000000
  | Integrated number of electrons on 3D grid     :      27.9997766134
  | Charge integration error                      :      -0.0002233866
  | Normalization factor for density and gradient :       1.0000079782

  Evaluating partitioned Hartree potential by multipole expansion.
  | Original multipole sum: apparent total charge =   0.312110E-13
  | Sum of charges compensated after spline to logarithmic grids =  -0.405494E-05
  | Analytical far-field extrapolation by fixed multipoles:
  | Hartree multipole sum: apparent total charge =  -0.000000E+00
  Summing up the Hartree potential.
  Time summed over all CPUs for potential: real work        0.591 s, elapsed        0.606 s
  | RMS charge density error from multipole expansion :   0.525651E-03
  | Average real-space part of the electrostatic potential :      0.01802194 eV

  Integrating Hamiltonian matrix: batch-based integration.
  Time summed over all CPUs for integration: real work        1.262 s, elapsed        1.275 s

  Updating Kohn-Sham eigenvalues and eigenvectors using ELSI and the (modified) LAPACK eigensolver.
  Starting LAPACK eigensolver
  Finished Cholesky decomposition
  | Time :     0.000 s
  Finished transformation to standard eigenproblem
  | Time :     0.000 s
  Finished solving standard eigenproblem
  | Time :     0.002 s
  Finished back-transformation of eigenvectors
  | Time :     0.000 s

  Obtaining occupation numbers and chemical potential using ELSI.
  | Chemical potential (Fermi level):    -5.25270761 eV
  Writing Kohn-Sham eigenvalues.
  K-point:       1 at    0.000000    0.000000    0.000000 (in units of recip. lattice)

  State    Occupation    Eigenvalue [Ha]    Eigenvalue [eV]
      1       2.00000         -65.785606        -1790.11743
      2       2.00000         -65.785606        -1790.11743
      3       2.00000          -5.138655         -139.82993
      4       2.00000          -5.138398         -139.82293
      5       2.00000          -3.523201          -95.87118
      6       2.00000          -3.523201          -95.87118
      7       2.00000          -3.523201          -95.87118
      8       2.00000          -3.522627          -95.85555
      9       2.00000          -3.522627          -95.85555
     10       2.00000          -3.522627          -95.85555
     11       2.00000          -0.654723          -17.81592
     12       2.00000          -0.223558           -6.08332
     13       2.00000          -0.223558           -6.08332
     14       2.00000          -0.223558           -6.08332
     15       0.00000          -0.122406           -3.33085
     16       0.00000          -0.122406           -3.33085
     17       0.00000          -0.122406           -3.33085
     18       0.00000          -0.108633           -2.95606
     19       0.00000           0.073850            2.00957
     20       0.00000           0.073850            2.00957

  What follows are estimated values for band gap, HOMO, LUMO, etc.
  | They are estimated on a discrete k-point grid and not necessarily exact.
  | For converged numbers, create a DOS and/or band structure plot on a denser k-grid.

  Highest occupied state (VBM) at     -6.08331914 eV (relative to internal zero)
  | Occupation number:      2.00000000
  | K-point:       1 at    0.000000    0.000000    0.000000 (in units of recip. lattice)

  Lowest unoccupied state (CBM) at    -5.21050100 eV (relative to internal zero)
  | Occupation number:      0.00000000
  | K-point:     690 at    0.583333    0.000000    0.583333 (in units of recip. lattice)

  ESTIMATED overall HOMO-LUMO gap:      0.87281814 eV between HOMO at k-point 1 and LUMO at k-point 690
  | This appears to be an indirect band gap.
  | Smallest direct gap :      2.72602940 eV for k_point 615 at    0.500000    0.000000    0.000000 (in units of recip. lattice)
  The gap value is above 0.2 eV. Unless you are using a very sparse k-point grid,
  this system is most likely an insulator or a semiconductor.

  Total energy components:
  | Sum of eigenvalues            :        -329.20986769 Ha       -8958.25629098 eV
  | XC energy correction          :         -41.71585300 Ha       -1135.14611568 eV
  | XC potential correction       :          53.87353840 Ha        1465.97356787 eV
  | Free-atom electrostatic energy:        -263.64579720 Ha       -7174.16715932 eV
  | Hartree energy correction     :          -0.04303679 Ha          -1.17109059 eV
  | Entropy correction            :          -0.00000000 Ha          -0.00000000 eV
  | ---------------------------
  | Total energy                  :        -580.74101627 Ha      -15802.76708870 eV
  | Total energy, T -> 0          :        -580.74101627 Ha      -15802.76708870 eV  <-- do not rely on this value for anything but (periodic) metals
  | Electronic free energy        :        -580.74101627 Ha      -15802.76708870 eV

  Derived energy quantities:
  | Kinetic energy                :         582.29699297 Ha       15845.10736897 eV
  | Electrostatic energy          :       -1121.32215625 Ha      -30512.72834199 eV
  | Energy correction for multipole
  | error in Hartree potential    :           0.00066758 Ha           0.01816582 eV
  | Sum of eigenvalues per atom                           :       -4479.12814549 eV
  | Total energy (T->0) per atom                          :       -7901.38354435 eV  <-- do not rely on this value for anything but (periodic) metals
  | Electronic free energy per atom                       :       -7901.38354435 eV

  Self-consistency convergence accuracy:
  | Change of charge density      :  0.1094E+00
  | Change of sum of eigenvalues  :  0.1160E+01 eV
  | Change of total energy        :  0.1349E-01 eV

  End self-consistency iteration #     1       :  max(cpu_time)    wall_clock(cpu1)
  | Time for this iteration                    :        1.697 s           1.709 s
  | Charge density update                      :        0.799 s           0.805 s
  | Density mixing & preconditioning           :        0.078 s           0.078 s
  | Hartree multipole update                   :        0.002 s           0.002 s
  | Hartree multipole summation                :        0.157 s           0.158 s
  | Integration                                :        0.323 s           0.323 s
  | Solution of K.-S. eqns.                    :        0.338 s           0.338 s
  | Total energy evaluation                    :        0.002 s           0.001 s

  Partial memory accounting:
  | Current value for overall tracked memory usage:
  |   Minimum:        4.789 MB (on task 0)
  |   Maximum:        4.789 MB (on task 0)
  |   Average:        4.789 MB
  | Peak value for overall tracked memory usage:
  |   Minimum:       11.556 MB (on task 3 after allocating gradient_basis_wave)
  |   Maximum:       11.817 MB (on task 1 after allocating gradient_basis_wave)
  |   Average:       11.732 MB
  | Largest tracked array allocation so far:
  |   Minimum:        3.466 MB (hamiltonian_shell on task 3)
  |   Maximum:        3.643 MB (hamiltonian_shell on task 1)
  |   Average:        3.585 MB
  Note:  These values currently only include a subset of arrays which are explicitly tracked.
  The "true" memory usage will be greater.
------------------------------------------------------------

------------------------------------------------------------
          Begin self-consistency iteration #    2

  Date     :  20201221, Time     :  165850.731
------------------------------------------------------------
  Evaluating new KS density using the density matrix
  Evaluating density matrix
  Time summed over all CPUs for getting density from density matrix: real work        2.786 s, elapsed        2.838 s
  Integration grid: deviation in total charge (<rho> - N_e) =   8.306245E-12
  Pulay mixing of updated and previous charge densities.
  Renormalizing the density to the exact electron count on the 3D integration grid.
  | Formal number of electrons (from input files) :      28.0000000000
  | Integrated number of electrons on 3D grid     :      27.9961214902
  | Charge integration error                      :      -0.0038785098
  | Normalization factor for density and gradient :       1.0001385374

  Evaluating partitioned Hartree potential by multipole expansion.
  | Original multipole sum: apparent total charge =  -0.156665E-13
  | Sum of charges compensated after spline to logarithmic grids =  -0.763792E-04
  | Analytical far-field extrapolation by fixed multipoles:
  | Hartree multipole sum: apparent total charge =  -0.000000E+00
  Summing up the Hartree potential.
  Time summed over all CPUs for potential: real work        0.596 s, elapsed        0.619 s
  | RMS charge density error from multipole expansion :   0.990731E-02
  | Average real-space part of the electrostatic potential :      0.33592573 eV

  Integrating Hamiltonian matrix: batch-based integration.
  Time summed over all CPUs for integration: real work        1.421 s, elapsed        1.432 s

  Updating Kohn-Sham eigenvalues and eigenvectors using ELSI and the (modified) LAPACK eigensolver.
  Starting LAPACK eigensolver
  Finished Cholesky decomposition
  | Time :     0.000 s
  Finished transformation to standard eigenproblem
  | Time :     0.000 s
  Finished solving standard eigenproblem
  | Time :     0.000 s
  Finished back-transformation of eigenvectors
  | Time :     0.000 s

  Obtaining occupation numbers and chemical potential using ELSI.
  | Chemical potential (Fermi level):    -5.02486481 eV
  What follows are estimated values for band gap, HOMO, LUMO, etc.
  | They are estimated on a discrete k-point grid and not necessarily exact.
  | For converged numbers, create a DOS and/or band structure plot on a denser k-grid.

  Highest occupied state (VBM) at     -5.57774799 eV (relative to internal zero)
  | Occupation number:      2.00000000
  | K-point:       1 at    0.000000    0.000000    0.000000 (in units of recip. lattice)

  Lowest unoccupied state (CBM) at    -4.98267562 eV (relative to internal zero)
  | Occupation number:      0.00000000
  | K-point:      48 at    0.000000    0.416667    0.416667 (in units of recip. lattice)

  ESTIMATED overall HOMO-LUMO gap:      0.59507236 eV between HOMO at k-point 1 and LUMO at k-point 48
  | This appears to be an indirect band gap.
  | Smallest direct gap :      2.54768733 eV for k_point 1 at    0.000000    0.000000    0.000000 (in units of recip. lattice)
  The gap value is above 0.2 eV. Unless you are using a very sparse k-point grid,
  this system is most likely an insulator or a semiconductor.

  Total energy components:
  | Sum of eigenvalues            :        -328.45857403 Ha       -8937.81255027 eV
  | XC energy correction          :         -41.78272740 Ha       -1136.96586064 eV
  | XC potential correction       :          53.95883484 Ha        1468.29460205 eV
  | Free-atom electrostatic energy:        -263.64579720 Ha       -7174.16715932 eV
  | Hartree energy correction     :          -0.80905854 Ha         -22.01560302 eV
  | Entropy correction            :          -0.00000000 Ha          -0.00000000 eV
  | ---------------------------
  | Total energy                  :        -580.73732232 Ha      -15802.66657120 eV
  | Total energy, T -> 0          :        -580.73732232 Ha      -15802.66657120 eV  <-- do not rely on this value for anything but (periodic) metals
  | Electronic free energy        :        -580.73732232 Ha      -15802.66657120 eV

  Derived energy quantities:
  | Kinetic energy                :         582.54899366 Ha       15851.96465649 eV
  | Electrostatic energy          :       -1121.50358858 Ha      -30517.66536706 eV
  | Energy correction for multipole
  | error in Hartree potential    :           0.01258488 Ha           0.34245209 eV
  | Sum of eigenvalues per atom                           :       -4468.90627513 eV
  | Total energy (T->0) per atom                          :       -7901.33328560 eV  <-- do not rely on this value for anything but (periodic) metals
  | Electronic free energy per atom                       :       -7901.33328560 eV

  Self-consistency convergence accuracy:
  | Change of charge density      :  0.1037E+00
  | Change of sum of eigenvalues  :  0.2044E+02 eV
  | Change of total energy        :  0.1005E+00 eV

  End self-consistency iteration #     2       :  max(cpu_time)    wall_clock(cpu1)
  | Time for this iteration                    :        1.741 s           1.743 s
  | Charge density update                      :        0.833 s           0.833 s
  | Density mixing & preconditioning           :        0.079 s           0.080 s
  | Hartree multipole update                   :        0.002 s           0.007 s
  | Hartree multipole summation                :        0.163 s           0.159 s
  | Integration                                :        0.364 s           0.364 s
  | Solution of K.-S. eqns.                    :        0.297 s           0.298 s
  | Total energy evaluation                    :        0.001 s           0.001 s

  Partial memory accounting:
  | Current value for overall tracked memory usage:
  |   Minimum:        4.790 MB (on task 0)
  |   Maximum:        4.790 MB (on task 0)
  |   Average:        4.790 MB
  | Peak value for overall tracked memory usage:
  |   Minimum:       11.556 MB (on task 3 after allocating gradient_basis_wave)
  |   Maximum:       11.817 MB (on task 1 after allocating gradient_basis_wave)
  |   Average:       11.732 MB
  | Largest tracked array allocation so far:
  |   Minimum:        3.466 MB (hamiltonian_shell on task 3)
  |   Maximum:        3.643 MB (hamiltonian_shell on task 1)
  |   Average:        3.585 MB
  Note:  These values currently only include a subset of arrays which are explicitly tracked.
  The "true" memory usage will be greater.
------------------------------------------------------------

------------------------------------------------------------
          Begin self-consistency iteration #    3

  Date     :  20201221, Time     :  165852.477
------------------------------------------------------------
  Evaluating new KS density using the density matrix
  Evaluating density matrix
  Time summed over all CPUs for getting density from density matrix: real work        2.724 s, elapsed        2.810 s
  Integration grid: deviation in total charge (<rho> - N_e) =   8.419931E-12
  Pulay mixing of updated and previous charge densities.
  Renormalizing the density to the exact electron count on the 3D integration grid.
  | Formal number of electrons (from input files) :      28.0000000000
  | Integrated number of electrons on 3D grid     :      28.0008266561
  | Charge integration error                      :       0.0008266561
  | Normalization factor for density and gradient :       0.9999704774

  Evaluating partitioned Hartree potential by multipole expansion.
  | Original multipole sum: apparent total charge =   0.492330E-13
  | Sum of charges compensated after spline to logarithmic grids =  -0.780209E-04
  | Analytical far-field extrapolation by fixed multipoles:
  | Hartree multipole sum: apparent total charge =  -0.000000E+00
  Summing up the Hartree potential.
  Time summed over all CPUs for potential: real work        0.597 s, elapsed        0.625 s
  | RMS charge density error from multipole expansion :   0.101408E-01
  | Average real-space part of the electrostatic potential :      0.30723781 eV

  Integrating Hamiltonian matrix: batch-based integration.
  Time summed over all CPUs for integration: real work        1.304 s, elapsed        1.342 s

  Updating Kohn-Sham eigenvalues and eigenvectors using ELSI and the (modified) LAPACK eigensolver.
  Starting LAPACK eigensolver
  Finished Cholesky decomposition
  | Time :     0.000 s
  Finished transformation to standard eigenproblem
  | Time :     0.000 s
  Finished solving standard eigenproblem
  | Time :     0.000 s
  Finished back-transformation of eigenvectors
  | Time :     0.000 s

  Obtaining occupation numbers and chemical potential using ELSI.
  | Chemical potential (Fermi level):    -5.03759532 eV
  What follows are estimated values for band gap, HOMO, LUMO, etc.
  | They are estimated on a discrete k-point grid and not necessarily exact.
  | For converged numbers, create a DOS and/or band structure plot on a denser k-grid.

  Highest occupied state (VBM) at     -5.61736778 eV (relative to internal zero)
  | Occupation number:      2.00000000
  | K-point:       1 at    0.000000    0.000000    0.000000 (in units of recip. lattice)

  Lowest unoccupied state (CBM) at    -4.99540263 eV (relative to internal zero)
  | Occupation number:      0.00000000
  | K-point:      48 at    0.000000    0.416667    0.416667 (in units of recip. lattice)

  ESTIMATED overall HOMO-LUMO gap:      0.62196515 eV between HOMO at k-point 1 and LUMO at k-point 48
  | This appears to be an indirect band gap.
  | Smallest direct gap :      2.55813317 eV for k_point 1 at    0.000000    0.000000    0.000000 (in units of recip. lattice)
  The gap value is above 0.2 eV. Unless you are using a very sparse k-point grid,
  this system is most likely an insulator or a semiconductor.

  Checking to see if s.c.f. parameters should be adjusted.
  The system likely has a gap. Increased the default Pulay mixing parameter (charge_mix_param). Value:   0.200000 .
  Kept the default occupation width. Value:   0.010000 eV.

  Total energy components:
  | Sum of eigenvalues            :        -328.62692348 Ha       -8942.39357199 eV
  | XC energy correction          :         -41.76787110 Ha       -1136.56160027 eV
  | XC potential correction       :          53.93956253 Ha        1467.77017578 eV
  | Free-atom electrostatic energy:        -263.64579720 Ha       -7174.16715932 eV
  | Hartree energy correction     :          -0.63610222 Ha         -17.30922211 eV
  | Entropy correction            :          -0.00000000 Ha          -0.00000000 eV
  | ---------------------------
  | Total energy                  :        -580.73713147 Ha      -15802.66137791 eV
  | Total energy, T -> 0          :        -580.73713147 Ha      -15802.66137791 eV  <-- do not rely on this value for anything but (periodic) metals
  | Electronic free energy        :        -580.73713147 Ha      -15802.66137791 eV

  Derived energy quantities:
  | Kinetic energy                :         582.33567367 Ha       15846.15992422 eV
  | Electrostatic energy          :       -1121.30493404 Ha      -30512.25970186 eV
  | Energy correction for multipole
  | error in Hartree potential    :           0.01289414 Ha           0.35086734 eV
  | Sum of eigenvalues per atom                           :       -4471.19678599 eV
  | Total energy (T->0) per atom                          :       -7901.33068896 eV  <-- do not rely on this value for anything but (periodic) metals
  | Electronic free energy per atom                       :       -7901.33068896 eV

  Self-consistency convergence accuracy:
  | Change of charge density      :  0.1649E-01
  | Change of sum of eigenvalues  : -0.4581E+01 eV
  | Change of total energy        :  0.5193E-02 eV

  End self-consistency iteration #     3       :  max(cpu_time)    wall_clock(cpu1)
  | Time for this iteration                    :        1.768 s           1.773 s
  | Charge density update                      :        0.800 s           0.803 s
  | Density mixing & preconditioning           :        0.080 s           0.081 s
  | Hartree multipole update                   :        0.002 s           0.003 s
  | Hartree multipole summation                :        0.186 s           0.194 s
  | Integration                                :        0.353 s           0.344 s
  | Solution of K.-S. eqns.                    :        0.341 s           0.341 s
  | Total energy evaluation                    :        0.005 s           0.005 s

  Partial memory accounting:
  | Current value for overall tracked memory usage:
  |   Minimum:        4.790 MB (on task 0)
  |   Maximum:        4.790 MB (on task 0)
  |   Average:        4.790 MB
  | Peak value for overall tracked memory usage:
  |   Minimum:       11.557 MB (on task 3 after allocating gradient_basis_wave)
  |   Maximum:       11.817 MB (on task 1 after allocating gradient_basis_wave)
  |   Average:       11.733 MB
  | Largest tracked array allocation so far:
  |   Minimum:        3.466 MB (hamiltonian_shell on task 3)
  |   Maximum:        3.643 MB (hamiltonian_shell on task 1)
  |   Average:        3.585 MB
  Note:  These values currently only include a subset of arrays which are explicitly tracked.
  The "true" memory usage will be greater.
------------------------------------------------------------

------------------------------------------------------------
          Begin self-consistency iteration #    4

  Date     :  20201221, Time     :  165854.256
------------------------------------------------------------
  Evaluating new KS density using the density matrix
  Evaluating density matrix
  Time summed over all CPUs for getting density from density matrix: real work        2.761 s, elapsed        2.815 s
  Integration grid: deviation in total charge (<rho> - N_e) =   8.387957E-12
  Pulay mixing of updated and previous charge densities.
  Renormalizing the density to the exact electron count on the 3D integration grid.
  | Formal number of electrons (from input files) :      28.0000000000
  | Integrated number of electrons on 3D grid     :      28.0003909107
  | Charge integration error                      :       0.0003909107
  | Normalization factor for density and gradient :       0.9999860391

  Evaluating partitioned Hartree potential by multipole expansion.
  | Original multipole sum: apparent total charge =   0.303183E-13
  | Sum of charges compensated after spline to logarithmic grids =  -0.834667E-04
  | Analytical far-field extrapolation by fixed multipoles:
  | Hartree multipole sum: apparent total charge =  -0.000000E+00
  Summing up the Hartree potential.
  Time summed over all CPUs for potential: real work        0.619 s, elapsed        0.660 s
  | RMS charge density error from multipole expansion :   0.108240E-01
  | Average real-space part of the electrostatic potential :      0.30377182 eV

  Integrating Hamiltonian matrix: batch-based integration.
  Time summed over all CPUs for integration: real work        1.352 s, elapsed        1.385 s

  Updating Kohn-Sham eigenvalues and eigenvectors using ELSI and the (modified) LAPACK eigensolver.
  Starting LAPACK eigensolver
  Finished Cholesky decomposition
  | Time :     0.000 s
  Finished transformation to standard eigenproblem
  | Time :     0.000 s
  Finished solving standard eigenproblem
  | Time :     0.001 s
  Finished back-transformation of eigenvectors
  | Time :     0.003 s

  Obtaining occupation numbers and chemical potential using ELSI.
  | Chemical potential (Fermi level):    -5.03089574 eV
  What follows are estimated values for band gap, HOMO, LUMO, etc.
  | They are estimated on a discrete k-point grid and not necessarily exact.
  | For converged numbers, create a DOS and/or band structure plot on a denser k-grid.

  Highest occupied state (VBM) at     -5.61702788 eV (relative to internal zero)
  | Occupation number:      2.00000000
  | K-point:       1 at    0.000000    0.000000    0.000000 (in units of recip. lattice)

  Lowest unoccupied state (CBM) at    -4.98869558 eV (relative to internal zero)
  | Occupation number:      0.00000000
  | K-point:      48 at    0.000000    0.416667    0.416667 (in units of recip. lattice)

  ESTIMATED overall HOMO-LUMO gap:      0.62833231 eV between HOMO at k-point 1 and LUMO at k-point 48
  | This appears to be an indirect band gap.
  | Smallest direct gap :      2.55450491 eV for k_point 1 at    0.000000    0.000000    0.000000 (in units of recip. lattice)
  The gap value is above 0.2 eV. Unless you are using a very sparse k-point grid,
  this system is most likely an insulator or a semiconductor.

  Total energy components:
  | Sum of eigenvalues            :        -328.70214138 Ha       -8944.44035513 eV
  | XC energy correction          :         -41.76251099 Ha       -1136.41574418 eV
  | XC potential correction       :          53.93242767 Ha        1467.57602634 eV
  | Free-atom electrostatic energy:        -263.64579720 Ha       -7174.16715932 eV
  | Hartree energy correction     :          -0.55902973 Ha         -15.21197299 eV
  | Entropy correction            :          -0.00000000 Ha          -0.00000000 eV
  | ---------------------------
  | Total energy                  :        -580.73705163 Ha      -15802.65920529 eV
  | Total energy, T -> 0          :        -580.73705163 Ha      -15802.65920529 eV  <-- do not rely on this value for anything but (periodic) metals
  | Electronic free energy        :        -580.73705163 Ha      -15802.65920529 eV

  Derived energy quantities:
  | Kinetic energy                :         582.21586056 Ha       15842.89964377 eV
  | Electrostatic energy          :       -1121.19040120 Ha      -30509.14310488 eV
  | Energy correction for multipole
  | error in Hartree potential    :           0.01378767 Ha           0.37518157 eV
  | Sum of eigenvalues per atom                           :       -4472.22017756 eV
  | Total energy (T->0) per atom                          :       -7901.32960264 eV  <-- do not rely on this value for anything but (periodic) metals
  | Electronic free energy per atom                       :       -7901.32960264 eV

  Self-consistency convergence accuracy:
  | Change of charge density      :  0.8335E-02
  | Change of sum of eigenvalues  : -0.2047E+01 eV
  | Change of total energy        :  0.2173E-02 eV

  End self-consistency iteration #     4       :  max(cpu_time)    wall_clock(cpu1)
  | Time for this iteration                    :        1.716 s           1.717 s
  | Charge density update                      :        0.791 s           0.789 s
  | Density mixing & preconditioning           :        0.099 s           0.099 s
  | Hartree multipole update                   :        0.007 s           0.007 s
  | Hartree multipole summation                :        0.169 s           0.170 s
  | Integration                                :        0.351 s           0.351 s
  | Solution of K.-S. eqns.                    :        0.294 s           0.295 s
  | Total energy evaluation                    :        0.004 s           0.002 s

  Partial memory accounting:
  | Current value for overall tracked memory usage:
  |   Minimum:        4.790 MB (on task 0)
  |   Maximum:        4.790 MB (on task 0)
  |   Average:        4.790 MB
  | Peak value for overall tracked memory usage:
  |   Minimum:       11.557 MB (on task 3 after allocating gradient_basis_wave)
  |   Maximum:       11.817 MB (on task 1 after allocating gradient_basis_wave)
  |   Average:       11.733 MB
  | Largest tracked array allocation so far:
  |   Minimum:        3.466 MB (hamiltonian_shell on task 3)
  |   Maximum:        3.643 MB (hamiltonian_shell on task 1)
  |   Average:        3.585 MB
  Note:  These values currently only include a subset of arrays which are explicitly tracked.
  The "true" memory usage will be greater.
------------------------------------------------------------

------------------------------------------------------------
          Begin self-consistency iteration #    5

  Date     :  20201221, Time     :  165855.977
------------------------------------------------------------
  Evaluating new KS density using the density matrix
  Evaluating density matrix
  Time summed over all CPUs for getting density from density matrix: real work        2.788 s, elapsed        2.813 s
  Integration grid: deviation in total charge (<rho> - N_e) =   8.331114E-12
  Pulay mixing of updated and previous charge densities.
  Renormalizing the density to the exact electron count on the 3D integration grid.
  | Formal number of electrons (from input files) :      28.0000000000
  | Integrated number of electrons on 3D grid     :      28.0002492077
  | Charge integration error                      :       0.0002492077
  | Normalization factor for density and gradient :       0.9999910998

  Evaluating partitioned Hartree potential by multipole expansion.
  | Original multipole sum: apparent total charge =   0.569685E-13
  | Sum of charges compensated after spline to logarithmic grids =  -0.868519E-04
  | Analytical far-field extrapolation by fixed multipoles:
  | Hartree multipole sum: apparent total charge =  -0.000000E+00
  Summing up the Hartree potential.
  Time summed over all CPUs for potential: real work        0.594 s, elapsed        0.616 s
  | RMS charge density error from multipole expansion :   0.110742E-01
  | Average real-space part of the electrostatic potential :      0.29817327 eV

  Integrating Hamiltonian matrix: batch-based integration.
  Time summed over all CPUs for integration: real work        1.381 s, elapsed        1.404 s

  Updating Kohn-Sham eigenvalues and eigenvectors using ELSI and the (modified) LAPACK eigensolver.
  Starting LAPACK eigensolver
  Finished Cholesky decomposition
  | Time :     0.000 s
  Finished transformation to standard eigenproblem
  | Time :     0.000 s
  Finished solving standard eigenproblem
  | Time :     0.000 s
  Finished back-transformation of eigenvectors
  | Time :     0.000 s

  Obtaining occupation numbers and chemical potential using ELSI.
  | Chemical potential (Fermi level):    -5.03094196 eV
  What follows are estimated values for band gap, HOMO, LUMO, etc.
  | They are estimated on a discrete k-point grid and not necessarily exact.
  | For converged numbers, create a DOS and/or band structure plot on a denser k-grid.

  Highest occupied state (VBM) at     -5.62449612 eV (relative to internal zero)
  | Occupation number:      2.00000000
  | K-point:       1 at    0.000000    0.000000    0.000000 (in units of recip. lattice)

  Lowest unoccupied state (CBM) at    -4.98874623 eV (relative to internal zero)
  | Occupation number:      0.00000000
  | K-point:      48 at    0.000000    0.416667    0.416667 (in units of recip. lattice)

  ESTIMATED overall HOMO-LUMO gap:      0.63574989 eV between HOMO at k-point 1 and LUMO at k-point 48
  | This appears to be an indirect band gap.
  | Smallest direct gap :      2.55600443 eV for k_point 1 at    0.000000    0.000000    0.000000 (in units of recip. lattice)
  The gap value is above 0.2 eV. Unless you are using a very sparse k-point grid,
  this system is most likely an insulator or a semiconductor.

  Total energy components:
  | Sum of eigenvalues            :        -328.72620865 Ha       -8945.09525888 eV
  | XC energy correction          :         -41.76350559 Ha       -1136.44280870 eV
  | XC potential correction       :          53.93349567 Ha        1467.60508817 eV
  | Free-atom electrostatic energy:        -263.64579720 Ha       -7174.16715932 eV
  | Hartree energy correction     :          -0.53498614 Ha         -14.55771369 eV
  | Entropy correction            :          -0.00000000 Ha          -0.00000000 eV
  | ---------------------------
  | Total energy                  :        -580.73700191 Ha      -15802.65785241 eV
  | Total energy, T -> 0          :        -580.73700191 Ha      -15802.65785241 eV  <-- do not rely on this value for anything but (periodic) metals
  | Electronic free energy        :        -580.73700191 Ha      -15802.65785241 eV

  Derived energy quantities:
  | Kinetic energy                :         582.25050017 Ha       15843.84223550 eV
  | Electrostatic energy          :       -1121.22399649 Ha      -30510.05727922 eV
  | Energy correction for multipole
  | error in Hartree potential    :           0.01418321 Ha           0.38594468 eV
  | Sum of eigenvalues per atom                           :       -4472.54762944 eV
  | Total energy (T->0) per atom                          :       -7901.32892621 eV  <-- do not rely on this value for anything but (periodic) metals
  | Electronic free energy per atom                       :       -7901.32892621 eV

  Self-consistency convergence accuracy:
  | Change of charge density      :  0.3457E-02
  | Change of sum of eigenvalues  : -0.6549E+00 eV
  | Change of total energy        :  0.1353E-02 eV

  End self-consistency iteration #     5       :  max(cpu_time)    wall_clock(cpu1)
  | Time for this iteration                    :        1.707 s           1.715 s
  | Charge density update                      :        0.798 s           0.798 s
  | Density mixing & preconditioning           :        0.076 s           0.077 s
  | Hartree multipole update                   :        0.002 s           0.002 s
  | Hartree multipole summation                :        0.159 s           0.159 s
  | Integration                                :        0.354 s           0.357 s
  | Solution of K.-S. eqns.                    :        0.317 s           0.317 s
  | Total energy evaluation                    :        0.002 s           0.002 s

  Partial memory accounting:
  | Current value for overall tracked memory usage:
  |   Minimum:        4.790 MB (on task 0)
  |   Maximum:        4.790 MB (on task 0)
  |   Average:        4.790 MB
  | Peak value for overall tracked memory usage:
  |   Minimum:       11.557 MB (on task 3 after allocating gradient_basis_wave)
  |   Maximum:       11.817 MB (on task 1 after allocating gradient_basis_wave)
  |   Average:       11.733 MB
  | Largest tracked array allocation so far:
  |   Minimum:        3.466 MB (hamiltonian_shell on task 3)
  |   Maximum:        3.643 MB (hamiltonian_shell on task 1)
  |   Average:        3.585 MB
  Note:  These values currently only include a subset of arrays which are explicitly tracked.
  The "true" memory usage will be greater.
------------------------------------------------------------

------------------------------------------------------------
          Begin self-consistency iteration #    6

  Date     :  20201221, Time     :  165857.699
------------------------------------------------------------
  Evaluating new KS density using the density matrix
  Evaluating density matrix
  Time summed over all CPUs for getting density from density matrix: real work        2.662 s, elapsed        2.707 s
  Integration grid: deviation in total charge (<rho> - N_e) =   8.377299E-12
  Pulay mixing of updated and previous charge densities.
  Renormalizing the density to the exact electron count on the 3D integration grid.
  | Formal number of electrons (from input files) :      28.0000000000
  | Integrated number of electrons on 3D grid     :      28.0000173352
  | Charge integration error                      :       0.0000173352
  | Normalization factor for density and gradient :       0.9999993809

  Evaluating partitioned Hartree potential by multipole expansion.
  | Original multipole sum: apparent total charge =   0.378479E-13
  | Sum of charges compensated after spline to logarithmic grids =  -0.864605E-04
  | Analytical far-field extrapolation by fixed multipoles:
  | Hartree multipole sum: apparent total charge =  -0.000000E+00
  Summing up the Hartree potential.
  Time summed over all CPUs for potential: real work        0.698 s, elapsed        0.738 s
  | RMS charge density error from multipole expansion :   0.110411E-01
  | Average real-space part of the electrostatic potential :      0.29657075 eV

  Integrating Hamiltonian matrix: batch-based integration.
  Time summed over all CPUs for integration: real work        1.377 s, elapsed        1.402 s

  Updating Kohn-Sham eigenvalues and eigenvectors using ELSI and the (modified) LAPACK eigensolver.
  Starting LAPACK eigensolver
  Finished Cholesky decomposition
  | Time :     0.000 s
  Finished transformation to standard eigenproblem
  | Time :     0.000 s
  Finished solving standard eigenproblem
  | Time :     0.000 s
  Finished back-transformation of eigenvectors
  | Time :     0.000 s

  Obtaining occupation numbers and chemical potential using ELSI.
  | Chemical potential (Fermi level):    -5.03224880 eV
  What follows are estimated values for band gap, HOMO, LUMO, etc.
  | They are estimated on a discrete k-point grid and not necessarily exact.
  | For converged numbers, create a DOS and/or band structure plot on a denser k-grid.

  Highest occupied state (VBM) at     -5.62708925 eV (relative to internal zero)
  | Occupation number:      2.00000000
  | K-point:       1 at    0.000000    0.000000    0.000000 (in units of recip. lattice)

  Lowest unoccupied state (CBM) at    -4.99005362 eV (relative to internal zero)
  | Occupation number:      0.00000000
  | K-point:      48 at    0.000000    0.416667    0.416667 (in units of recip. lattice)

  ESTIMATED overall HOMO-LUMO gap:      0.63703563 eV between HOMO at k-point 1 and LUMO at k-point 48
  | This appears to be an indirect band gap.
  | Smallest direct gap :      2.55698351 eV for k_point 1 at    0.000000    0.000000    0.000000 (in units of recip. lattice)
  The gap value is above 0.2 eV. Unless you are using a very sparse k-point grid,
  this system is most likely an insulator or a semiconductor.

  Total energy components:
  | Sum of eigenvalues            :        -328.73123840 Ha       -8945.23212535 eV
  | XC energy correction          :         -41.76307037 Ha       -1136.43096565 eV
  | XC potential correction       :          53.93294130 Ha        1467.59000294 eV
  | Free-atom electrostatic energy:        -263.64579720 Ha       -7174.16715932 eV
  | Hartree energy correction     :          -0.52983474 Ha         -14.41753673 eV
  | Entropy correction            :          -0.00000000 Ha          -0.00000000 eV
  | ---------------------------
  | Total energy                  :        -580.73699940 Ha      -15802.65778410 eV
  | Total energy, T -> 0          :        -580.73699940 Ha      -15802.65778410 eV  <-- do not rely on this value for anything but (periodic) metals
  | Electronic free energy        :        -580.73699940 Ha      -15802.65778410 eV

  Derived energy quantities:
  | Kinetic energy                :         582.24898790 Ha       15843.80108454 eV
  | Electrostatic energy          :       -1121.22291694 Ha      -30510.02790300 eV
  | Energy correction for multipole
  | error in Hartree potential    :           0.01414253 Ha           0.38483790 eV
  | Sum of eigenvalues per atom                           :       -4472.61606268 eV
  | Total energy (T->0) per atom                          :       -7901.32889205 eV  <-- do not rely on this value for anything but (periodic) metals
  | Electronic free energy per atom                       :       -7901.32889205 eV

  Self-consistency convergence accuracy:
  | Change of charge density      :  0.3679E-03
  | Change of sum of eigenvalues  : -0.1369E+00 eV
  | Change of total energy        :  0.6831E-04 eV

  End self-consistency iteration #     6       :  max(cpu_time)    wall_clock(cpu1)
  | Time for this iteration                    :        1.735 s           1.741 s
  | Charge density update                      :        0.780 s           0.780 s
  | Density mixing & preconditioning           :        0.078 s           0.078 s
  | Hartree multipole update                   :        0.001 s           0.002 s
  | Hartree multipole summation                :        0.190 s           0.191 s
  | Integration                                :        0.356 s           0.356 s
  | Solution of K.-S. eqns.                    :        0.329 s           0.330 s
  | Total energy evaluation                    :        0.001 s           0.003 s

  Partial memory accounting:
  | Current value for overall tracked memory usage:
  |   Minimum:        4.790 MB (on task 0)
  |   Maximum:        4.790 MB (on task 0)
  |   Average:        4.790 MB
  | Peak value for overall tracked memory usage:
  |   Minimum:       11.557 MB (on task 3 after allocating gradient_basis_wave)
  |   Maximum:       11.817 MB (on task 1 after allocating gradient_basis_wave)
  |   Average:       11.733 MB
  | Largest tracked array allocation so far:
  |   Minimum:        3.466 MB (hamiltonian_shell on task 3)
  |   Maximum:        3.643 MB (hamiltonian_shell on task 1)
  |   Average:        3.585 MB
  Note:  These values currently only include a subset of arrays which are explicitly tracked.
  The "true" memory usage will be greater.
------------------------------------------------------------

------------------------------------------------------------
          Begin self-consistency iteration #    7

  Date     :  20201221, Time     :  165859.443
------------------------------------------------------------
  Evaluating new KS density using the density matrix
  Evaluating density matrix
  Time summed over all CPUs for getting density from density matrix: real work        2.872 s, elapsed        2.951 s
  Integration grid: deviation in total charge (<rho> - N_e) =   8.391510E-12
  Pulay mixing of updated and previous charge densities.
  Renormalizing the density to the exact electron count on the 3D integration grid.
  | Formal number of electrons (from input files) :      28.0000000000
  | Integrated number of electrons on 3D grid     :      27.9999858916
  | Charge integration error                      :      -0.0000141084
  | Normalization factor for density and gradient :       1.0000005039

  Evaluating partitioned Hartree potential by multipole expansion.
  | Original multipole sum: apparent total charge =   0.436993E-13
  | Sum of charges compensated after spline to logarithmic grids =  -0.864279E-04
  | Analytical far-field extrapolation by fixed multipoles:
  | Hartree multipole sum: apparent total charge =  -0.000000E+00
  Summing up the Hartree potential.
  Time summed over all CPUs for potential: real work        0.602 s, elapsed        0.605 s
  | RMS charge density error from multipole expansion :   0.110636E-01
  | Average real-space part of the electrostatic potential :      0.29734990 eV

  Integrating Hamiltonian matrix: batch-based integration.
  Time summed over all CPUs for integration: real work        1.331 s, elapsed        1.360 s

  Updating Kohn-Sham eigenvalues and eigenvectors using ELSI and the (modified) LAPACK eigensolver.
  Starting LAPACK eigensolver
  Finished Cholesky decomposition
  | Time :     0.000 s
  Finished transformation to standard eigenproblem
  | Time :     0.000 s
  Finished solving standard eigenproblem
  | Time :     0.001 s
  Finished back-transformation of eigenvectors
  | Time :     0.000 s

  Obtaining occupation numbers and chemical potential using ELSI.
  | Chemical potential (Fermi level):    -5.03152170 eV
  What follows are estimated values for band gap, HOMO, LUMO, etc.
  | They are estimated on a discrete k-point grid and not necessarily exact.
  | For converged numbers, create a DOS and/or band structure plot on a denser k-grid.

  Highest occupied state (VBM) at     -5.62566003 eV (relative to internal zero)
  | Occupation number:      2.00000000
[...]
  | Sum of eigenvalues            :        -328.73389068 Ha       -8945.30429745 eV
  | XC energy correction          :         -41.76294727 Ha       -1136.42761597 eV
  | XC potential correction       :          53.93277648 Ha        1467.58551786 eV
  | Free-atom electrostatic energy:        -263.64579720 Ha       -7174.16715932 eV
  | Hartree energy correction     :          -0.52714009 Ha         -14.34421177 eV
  | Entropy correction            :          -0.00000000 Ha          -0.00000000 eV
  | ---------------------------
  | Total energy                  :        -580.73699876 Ha      -15802.65776665 eV
  | Total energy, T -> 0          :        -580.73699876 Ha      -15802.65776665 eV  <-- do not rely on this value for anything but (periodic) metals
  | Electronic free energy        :        -580.73699876 Ha      -15802.65776665 eV

  Derived energy quantities:
  | Kinetic energy                :         582.24520289 Ha       15843.69808907 eV
  | Electrostatic energy          :       -1121.21925438 Ha      -30509.92823975 eV
  | Energy correction for multipole
  | error in Hartree potential    :           0.01414099 Ha           0.38479580 eV
  | Sum of eigenvalues per atom                           :       -4472.65214872 eV
  | Total energy (T->0) per atom                          :       -7901.32888333 eV  <-- do not rely on this value for anything but (periodic) metals
  | Electronic free energy per atom                       :       -7901.32888333 eV

  Self-consistency convergence accuracy:
  | Change of charge density      :  0.2045E-04
  | Change of sum of eigenvalues  : -0.1164E-01 eV
  | Change of total energy        :  0.1866E-05 eV

  End self-consistency iteration #    11       :  max(cpu_time)    wall_clock(cpu1)
  | Time for this iteration                    :        1.697 s           1.699 s
  | Charge density update                      :        0.776 s           0.776 s
  | Density mixing & preconditioning           :        0.107 s           0.107 s
  | Hartree multipole update                   :        0.003 s           0.004 s
  | Hartree multipole summation                :        0.166 s           0.166 s
  | Integration                                :        0.355 s           0.356 s
  | Solution of K.-S. eqns.                    :        0.286 s           0.287 s
  | Total energy evaluation                    :        0.002 s           0.001 s

  Partial memory accounting:
  | Current value for overall tracked memory usage:
  |   Minimum:        4.790 MB (on task 0)
  |   Maximum:        4.790 MB (on task 0)
  |   Average:        4.790 MB
  | Peak value for overall tracked memory usage:
  |   Minimum:       11.557 MB (on task 3 after allocating gradient_basis_wave)
  |   Maximum:       11.817 MB (on task 1 after allocating gradient_basis_wave)
  |   Average:       11.733 MB
  | Largest tracked array allocation so far:
  |   Minimum:        3.466 MB (hamiltonian_shell on task 3)
  |   Maximum:        3.643 MB (hamiltonian_shell on task 1)
  |   Average:        3.585 MB
  Note:  These values currently only include a subset of arrays which are explicitly tracked.
  The "true" memory usage will be greater.
------------------------------------------------------------

------------------------------------------------------------
          Begin self-consistency iteration #   12

  Date     :  20201221, Time     :  165908.078
------------------------------------------------------------
  Evaluating new KS density using the density matrix
  Evaluating density matrix
  Time summed over all CPUs for getting density from density matrix: real work        2.650 s, elapsed        2.682 s
  Integration grid: deviation in total charge (<rho> - N_e) =   8.284928E-12
  Pulay mixing of updated and previous charge densities.
  Renormalizing the density to the exact electron count on the 3D integration grid.
  | Formal number of electrons (from input files) :      28.0000000000
  | Integrated number of electrons on 3D grid     :      28.0000003891
  | Charge integration error                      :       0.0000003891
  | Normalization factor for density and gradient :       0.9999999861

  Evaluating partitioned Hartree potential by multipole expansion.
  | Original multipole sum: apparent total charge =   0.337789E-13
  | Sum of charges compensated after spline to logarithmic grids =  -0.861864E-04
  | Analytical far-field extrapolation by fixed multipoles:
  | Hartree multipole sum: apparent total charge =  -0.000000E+00
  Summing up the Hartree potential.
  Time summed over all CPUs for potential: real work        0.584 s, elapsed        0.603 s
  | RMS charge density error from multipole expansion :   0.110558E-01
  | Average real-space part of the electrostatic potential :      0.29588513 eV

  Integrating Hamiltonian matrix: batch-based integration.
  Time summed over all CPUs for integration: real work        1.463 s, elapsed        1.498 s

  Updating Kohn-Sham eigenvalues and eigenvectors using ELSI and the (modified) LAPACK eigensolver.
  Starting LAPACK eigensolver
  Finished Cholesky decomposition
  | Time :     0.000 s
  Finished transformation to standard eigenproblem
  | Time :     0.000 s
  Finished solving standard eigenproblem
  | Time :     0.001 s
  Finished back-transformation of eigenvectors
  | Time :     0.000 s

  Obtaining occupation numbers and chemical potential using ELSI.
  | Chemical potential (Fermi level):    -5.03211021 eV
  What follows are estimated values for band gap, HOMO, LUMO, etc.
  | They are estimated on a discrete k-point grid and not necessarily exact.
  | For converged numbers, create a DOS and/or band structure plot on a denser k-grid.

  Highest occupied state (VBM) at     -5.62644192 eV (relative to internal zero)
  | Occupation number:      2.00000000
  | K-point:       1 at    0.000000    0.000000    0.000000 (in units of recip. lattice)

  Lowest unoccupied state (CBM) at    -4.98989903 eV (relative to internal zero)
  | Occupation number:      0.00000000
  | K-point:      48 at    0.000000    0.416667    0.416667 (in units of recip. lattice)

  ESTIMATED overall HOMO-LUMO gap:      0.63654289 eV between HOMO at k-point 1 and LUMO at k-point 48
  | This appears to be an indirect band gap.
  | Smallest direct gap :      2.55678891 eV for k_point 1 at    0.000000    0.000000    0.000000 (in units of recip. lattice)
  The gap value is above 0.2 eV. Unless you are using a very sparse k-point grid,
  this system is most likely an insulator or a semiconductor.

  Total energy components:
  | Sum of eigenvalues            :        -328.73390261 Ha       -8945.30462216 eV
  | XC energy correction          :         -41.76294645 Ha       -1136.42759361 eV
  | XC potential correction       :          53.93277540 Ha        1467.58548843 eV
  | Free-atom electrostatic energy:        -263.64579720 Ha       -7174.16715932 eV
  | Hartree energy correction     :          -0.52712790 Ha         -14.34387992 eV
  | Entropy correction            :          -0.00000000 Ha          -0.00000000 eV
  | ---------------------------
  | Total energy                  :        -580.73699876 Ha      -15802.65776657 eV
  | Total energy, T -> 0          :        -580.73699876 Ha      -15802.65776657 eV  <-- do not rely on this value for anything but (periodic) metals
  | Electronic free energy        :        -580.73699876 Ha      -15802.65776657 eV

  Derived energy quantities:
  | Kinetic energy                :         582.24519738 Ha       15843.69793917 eV
  | Electrostatic energy          :       -1121.21924969 Ha      -30509.92811214 eV
  | Energy correction for multipole
  | error in Hartree potential    :           0.01414084 Ha           0.38479178 eV
  | Sum of eigenvalues per atom                           :       -4472.65231108 eV
  | Total energy (T->0) per atom                          :       -7901.32888329 eV  <-- do not rely on this value for anything but (periodic) metals
  | Electronic free energy per atom                       :       -7901.32888329 eV

  Self-consistency convergence accuracy:
  | Change of charge density      :  0.4246E-06
  | Change of sum of eigenvalues  : -0.3247E-03 eV
  | Change of total energy        :  0.8348E-07 eV

  Preliminary charge convergence reached. Turning off preconditioner.

  Writing Kohn-Sham eigenvalues.
  K-point:       1 at    0.000000    0.000000    0.000000 (in units of recip. lattice)

  State    Occupation    Eigenvalue [Ha]    Eigenvalue [eV]
      1       2.00000         -65.762824        -1789.49749
      2       2.00000         -65.762824        -1789.49749
      3       2.00000          -5.121956         -139.37550
      4       2.00000          -5.121701         -139.36856
      5       2.00000          -3.505804          -95.39779
      6       2.00000          -3.505804          -95.39779
      7       2.00000          -3.505804          -95.39779
      8       2.00000          -3.505236          -95.38233
      9       2.00000          -3.505236          -95.38233
     10       2.00000          -3.505236          -95.38233
     11       2.00000          -0.641665          -17.46058
     12       2.00000          -0.206768           -5.62644
     13       2.00000          -0.206768           -5.62644
     14       2.00000          -0.206768           -5.62644
     15       0.00000          -0.112808           -3.06965
     16       0.00000          -0.112808           -3.06965
     17       0.00000          -0.112808           -3.06965
     18       0.00000          -0.090760           -2.46970
     19       0.00000           0.082856            2.25462
     20       0.00000           0.082856            2.25462

  What follows are estimated values for band gap, HOMO, LUMO, etc.
  | They are estimated on a discrete k-point grid and not necessarily exact.
  | For converged numbers, create a DOS and/or band structure plot on a denser k-grid.

  Highest occupied state (VBM) at     -5.62644192 eV (relative to internal zero)
  | Occupation number:      2.00000000
  | K-point:       1 at    0.000000    0.000000    0.000000 (in units of recip. lattice)

  Lowest unoccupied state (CBM) at    -4.98989903 eV (relative to internal zero)
  | Occupation number:      0.00000000
  | K-point:      48 at    0.000000    0.416667    0.416667 (in units of recip. lattice)

  ESTIMATED overall HOMO-LUMO gap:      0.63654289 eV between HOMO at k-point 1 and LUMO at k-point 48
  | This appears to be an indirect band gap.
  | Smallest direct gap :      2.55678891 eV for k_point 1 at    0.000000    0.000000    0.000000 (in units of recip. lattice)
  The gap value is above 0.2 eV. Unless you are using a very sparse k-point grid,
  this system is most likely an insulator or a semiconductor.

  Self-consistency cycle converged.

  End self-consistency iteration #    12       :  max(cpu_time)    wall_clock(cpu1)
  | Time for this iteration                    :        1.712 s           1.727 s
  | Charge density update                      :        0.780 s           0.781 s
  | Density mixing                             :        0.073 s           0.074 s
  | Hartree multipole update                   :        0.002 s           0.002 s
  | Hartree multipole summation                :        0.159 s           0.160 s
  | Integration                                :        0.379 s           0.382 s
  | Solution of K.-S. eqns.                    :        0.316 s           0.318 s
  | Total energy evaluation                    :        0.001 s           0.005 s

  Partial memory accounting:
  | Current value for overall tracked memory usage:
  |   Minimum:        4.790 MB (on task 0)
  |   Maximum:        4.790 MB (on task 0)
  |   Average:        4.790 MB
  | Peak value for overall tracked memory usage:
  |   Minimum:       11.557 MB (on task 3 after allocating gradient_basis_wave)
  |   Maximum:       11.817 MB (on task 1 after allocating gradient_basis_wave)
  |   Average:       11.733 MB
  | Largest tracked array allocation so far:
  |   Minimum:        3.466 MB (hamiltonian_shell on task 3)
  |   Maximum:        3.643 MB (hamiltonian_shell on task 1)
  |   Average:        3.585 MB
  Note:  These values currently only include a subset of arrays which are explicitly tracked.
  The "true" memory usage will be greater.
------------------------------------------------------------

  Energy and forces in a compact form:
  | Total energy uncorrected      :         -0.158026577665712E+05 eV
  | Total energy corrected        :         -0.158026577665712E+05 eV  <-- do not rely on this value for anything but (periodic) metals
  | Electronic free energy        :         -0.158026577665712E+05 eV

  ------------------------------------ 
  Start decomposition of the XC Energy 
  ------------------------------------ 
  X and C from original XC functional choice 
  Hartree-Fock Energy :          0.000000000 Ha              0.000000000 eV
  X Energy            :        -40.670219302 Ha          -1106.692975121 eV
  C Energy            :         -1.092727145 Ha            -29.734618485 eV
  Total XC Energy     :        -41.762946446 Ha          -1136.427593606 eV
  ------------------------------------ 
  LDA X and C from self-consistent density 
  X Energy LDA        :        -37.615773865 Ha          -1023.577285892 eV
  C Energy LDA        :         -2.145369266 Ha            -58.378467985 eV
  ------------------------------------ 
  End decomposition of the XC Energy 
  ------------------------------------ 

------------------------------------------------------------

------------------------------------------------------------------------------
  Final output of selected total energy values:

  The following output summarizes some interesting total energy values
  at the end of a run (AFTER all relaxation, molecular dynamics, etc.).

  | Total energy of the DFT / Hartree-Fock s.c.f. calculation      :         -15802.657766571 eV
  | Final zero-broadening corrected energy (caution - metals only) :         -15802.657766571 eV
  | For reference only, the value of 1 Hartree used in FHI-aims is :             27.211384500 eV
  | For reference only, the overall average (free atom contribution
  | + realspace contribution) of the electrostatic potential after
  | s.c.f. convergence is                                          :            -12.560849867 eV

  Before relying on these values, please be sure to understand exactly which
  total energy value is referred to by a given number. Different objects may
  all carry the same name 'total energy'. Definitions:

  Total energy of the DFT / Hartree-Fock s.c.f. calculation:
  | Note that this energy does not include ANY quantities calculated after the
  | s.c.f. cycle, in particular not ANY RPA, MP2, etc. many-body perturbation terms.

  Final zero-broadening corrected energy:
  | For metallic systems only, a broadening of the occupation numbers at the Fermi
  | level can be extrapolated back to zero broadening by an electron-gas inspired
  | formula. For all systems that are not real metals, this value can be
  | meaningless and should be avoided.

------------------------------------------------------------------------------
  Methods described in the following list of references were used in this FHI-aims run.
  If you publish the results, please make sure to cite these reference if they apply.
  FHI-aims is an academic code, and for our developers (often, Ph.D. students
  and postdocs), scientific credit in the community is essential.
  Thank you for helping us!

  For any use of FHI-aims, please cite:

    Volker Blum, Ralf Gehrke, Felix Hanke, Paula Havu, Ville Havu,
    Xinguo Ren, Karsten Reuter, and Matthias Scheffler
    'Ab initio molecular simulations with numeric atom-centered orbitals'
    Computer Physics Communications 180, 2175-2196 (2009)
    http://dx.doi.org/10.1016/j.cpc.2009.06.022


  The provided symmetry information was generated with SPGlib:

    Atsushi Togo, Yusuke Seto, Dimitar Pashov
    SPGlib 1.7.3 obtained from http://spglib.sourceforge.net
    Copyright (C) 2008 Atsushi Togo


  The ELSI infrastructure was used in your run to solve the Kohn-Sham electronic structure.
  Please check out http://elsi-interchange.org to learn more.
  If scalability is important for your project, please acknowledge ELSI by citing:

    V. W-z. Yu, F. Corsetti, A. Garcia, W. P. Huhn, M. Jacquelin, W. Jia,
    B. Lange, L. Lin, J. Lu, W. Mi, A. Seifitokaldani, A. Vazquez-Mayagoitia,
    C. Yang, H. Yang, and V. Blum
    'ELSI: A unified software interface for Kohn-Sham electronic structure solvers'
    Computer Physics Communications 222, 267-285 (2018).
    http://dx.doi.org/10.1016/j.cpc.2017.09.007


  For the real-space grid partitioning and parallelization used in this calculation, please cite:

    Ville Havu, Volker Blum, Paula Havu, and Matthias Scheffler,
    'Efficient O(N) integration for all-electron electronic structure calculation'
    'using numerically tabulated basis functions'
    Journal of Computational Physics 228, 8367-8379 (2009).
    http://dx.doi.org/10.1016/j.jcp.2009.08.008

  Of course, there are many other important community references, e.g., those cited in the
  above references. Our list is limited to references that describe implementations in the
  FHI-aims code. The reason is purely practical (length of this list) - please credit others as well.

------------------------------------------------------------
          Leaving FHI-aims.
          Date     :  20201221, Time     :  165909.826

          Computational steps:
          | Number of self-consistency cycles          :           12
          | Number of SCF (re)initializations          :            1

          Detailed time accounting                     :  max(cpu_time)    wall_clock(cpu1)
          | Total time                                 :       22.172 s          22.362 s
          | Preparation time                           :        0.186 s           0.184 s
          | Boundary condition initalization           :        0.137 s           0.137 s
          | Grid partitioning                          :        0.030 s           0.030 s
          | Preloading free-atom quantities on grid    :        0.123 s           0.129 s
          | Free-atom superposition energy             :        0.029 s           0.029 s
          | Total time for integrations                :        4.809 s           4.798 s
          | Total time for solution of K.-S. equations :        4.170 s           4.179 s
          | Total time for density update              :        9.545 s           9.551 s
          | Total time for mixing & preconditioning    :        0.976 s           0.983 s
          | Total time for Hartree multipole update    :        0.035 s           0.045 s
          | Total time for Hartree multipole sum       :        2.047 s           2.066 s
          | Total time for total energy evaluation     :        0.036 s           0.049 s
          | Total time for scaled ZORA corrections     :        0.000 s           0.000 s

          Partial memory accounting:
          | Residual value for overall tracked memory usage across tasks:     0.000000 MB (should be 0.000000 MB)
          | Peak values for overall tracked memory usage:
          |   Minimum:       11.557 MB (on task 3 after allocating gradient_basis_wave)
          |   Maximum:       11.817 MB (on task 1 after allocating gradient_basis_wave)
          |   Average:       11.733 MB
          | Largest tracked array allocation:
          |   Minimum:        3.466 MB (hamiltonian_shell on task 3)
          |   Maximum:        3.643 MB (hamiltonian_shell on task 1)
          |   Average:        3.585 MB
          Note:  These values currently only include a subset of arrays which are explicitly tracked.
          The "true" memory usage will be greater.

          Have a nice day.
------------------------------------------------------------
