  MPI-parallelism will be employed.
------------------------------------------------------------
          Invoking FHI-aims ...
          Version 171221_1
          Compiled on 2018/11/06 at 11:18:49 on host headnode.

          When using FHI-aims, please cite the following reference:

          Volker Blum, Ralf Gehrke, Felix Hanke, Paula Havu,
          Ville Havu, Xinguo Ren, Karsten Reuter, and Matthias Scheffler,
          'Ab Initio Molecular Simulations with Numeric Atom-Centered Orbitals',
          Computer Physics Communications 180, 2175-2196 (2009)

          For any questions about FHI-aims, please visit the aimsclub website
          with its forums and wiki. Contributions to both the forums and the
          wiki are warmly encouraged - they are for you, and everyone is welcome there.

------------------------------------------------------------



  Date     :  20191117, Time     :  154946.392
  Time zero on CPU 1             :   0.472000000000000E+00  s.
  Internal wall clock time zero  :           343237786.392  s.

  FHI-aims created a unique identifier for this run for later identification
  aims_uuid : 1B37C419-2D5B-4A68-AE4F-4C1334126746

  Using       80 parallel tasks.
  Task        0 on host t017 reporting.
  Task        1 on host t017 reporting.
  Task        2 on host t017 reporting.
  Task        3 on host t017 reporting.
  Task        4 on host t017 reporting.
  Task        5 on host t017 reporting.
  Task        6 on host t017 reporting.
  Task        7 on host t017 reporting.
  Task        8 on host t017 reporting.
  Task        9 on host t017 reporting.
  Task       10 on host t017 reporting.
  Task       11 on host t017 reporting.
  Task       12 on host t017 reporting.
  Task       13 on host t017 reporting.
  Task       14 on host t017 reporting.
  Task       15 on host t017 reporting.
  Task       16 on host t017 reporting.
  Task       17 on host t017 reporting.
  Task       18 on host t017 reporting.
  Task       19 on host t017 reporting.
  Task       20 on host t016 reporting.
  Task       21 on host t016 reporting.
  Task       22 on host t016 reporting.
  Task       23 on host t016 reporting.
  Task       24 on host t016 reporting.
  Task       25 on host t016 reporting.
  Task       26 on host t016 reporting.
  Task       27 on host t016 reporting.
  Task       28 on host t016 reporting.
  Task       29 on host t016 reporting.
  Task       30 on host t016 reporting.
  Task       31 on host t016 reporting.
  Task       32 on host t016 reporting.
  Task       33 on host t016 reporting.
  Task       34 on host t016 reporting.
  Task       35 on host t016 reporting.
  Task       36 on host t016 reporting.
  Task       37 on host t016 reporting.
  Task       38 on host t016 reporting.
  Task       39 on host t016 reporting.
  Task       40 on host t015 reporting.
  Task       41 on host t015 reporting.
  Task       42 on host t015 reporting.
  Task       43 on host t015 reporting.
  Task       44 on host t015 reporting.
  Task       45 on host t015 reporting.
  Task       46 on host t015 reporting.
  Task       47 on host t015 reporting.
  Task       48 on host t015 reporting.
  Task       49 on host t015 reporting.
  Task       50 on host t015 reporting.
  Task       51 on host t015 reporting.
  Task       52 on host t015 reporting.
  Task       53 on host t015 reporting.
  Task       54 on host t015 reporting.
  Task       55 on host t015 reporting.
  Task       56 on host t015 reporting.
  Task       57 on host t015 reporting.
  Task       58 on host t015 reporting.
  Task       59 on host t015 reporting.
  Task       60 on host t014 reporting.
  Task       61 on host t014 reporting.
  Task       62 on host t014 reporting.
  Task       63 on host t014 reporting.
  Task       64 on host t014 reporting.
  Task       65 on host t014 reporting.
  Task       66 on host t014 reporting.
  Task       67 on host t014 reporting.
  Task       68 on host t014 reporting.
  Task       69 on host t014 reporting.
  Task       70 on host t014 reporting.
  Task       71 on host t014 reporting.
  Task       72 on host t014 reporting.
  Task       73 on host t014 reporting.
  Task       74 on host t014 reporting.
  Task       75 on host t014 reporting.
  Task       76 on host t014 reporting.
  Task       77 on host t014 reporting.
  Task       78 on host t014 reporting.
  Task       79 on host t014 reporting.

  Performing system and environment tests:
  | Environment variable OMP_NUM_THREADS correctly set to 1.
  | Stacksize not measured: no C compiler
  | Checking for scalapack...
  | Testing pdtran()...
  | All pdtran() tests passed.

  Obtaining array dimensions for all initial allocations:
  
  -----------------------------------------------------------------------
  Parsing control.in (first pass over file, find array dimensions only).
  The contents of control.in will be repeated verbatim below
  unless switched off by setting 'verbatim_writeout .false.' .
  in the first line of control.in .
  -----------------------------------------------------------------------
  
  #===============================================================================
  # FHI-aims file: ./control.in
  # Created using the Atomic Simulation Environment (ASE)
  # Sun Nov 17 12:43:15 2019
  #
  # List of parameters used to initialize the calculator:
  #     xc : pbe
  #     spin : none
  #     species_dir : /chemsoft/FHI-aims/stable/species_defaults/tight
  #     relativistic : ('atomic_zora', 'scalar')
  #     adjust_scf : once 2
  #     k_grid : [12, 12, 12]
  #===============================================================================
  xc                                 pbe
  spin                               none
  relativistic                       atomic_zora scalar
  include_spin_orbit
  adjust_scf                         once 2
  ### band structure section
  output band 0.000000 0.000000 0.000000    0.500000 0.000000 0.000000  31  G M
  output band 0.500000 0.000000 0.000000    0.333333 0.333333 0.000000  31  M K
  output band 0.333333 0.333333 0.000000    0.000000 0.000000 0.000000  31  K G
  output band 0.000000 0.000000 0.000000    0.000000 0.000000 0.500000  31  G A
  output band 0.000000 0.000000 0.500000    0.500000 0.000000 0.500000  31  A L
  output band 0.500000 0.000000 0.500000    0.333333 0.333333 0.500000  31  L H
  output band 0.333333 0.333333 0.500000    0.000000 0.000000 0.500000  31  H A
  output band 0.000000 0.000000 0.500000    0.500000 0.000000 0.500000  31  A L
  output band 0.500000 0.000000 0.500000    0.500000 0.000000 0.000000  31  L M
  output band 0.500000 0.000000 0.000000    0.333333 0.333333 0.000000  31  M K
  output band 0.333333 0.333333 0.000000    0.333333 0.333333 0.500000  31  K H
  k_grid                             12 12 12
  output postscf_eigenvalues
  #===============================================================================
  
  ################################################################################
  #
  #  FHI-aims code project
  # Volker Blum, Fritz Haber Institute Berlin, 2009
  #
  #  Suggested "tight" defaults for Mo atom (to be pasted into control.in file)
  #
  ################################################################################
    species        Mo
  #     global species definitions
      nucleus             42
      mass                95.94
  #
      l_hartree           6
  #
      cut_pot             4.0  2.0  1.0
      basis_dep_cutoff    1e-4
  #
      radial_base         59 7.0
      radial_multiplier   2
      angular_grids specified
        division   0.3117   50
        division   0.6750  110
        division   1.0351  194
        division   1.2073  302
        division   1.6402  434
  #      division   1.9185  590
  #      division   2.0237  770
  #      division   2.0980  974
  #      division   2.7972 1202
  #      outer_grid  974
        outer_grid  434
  ################################################################################
  #
  #  Definition of "minimal" basis
  #
  ################################################################################
  #     valence basis states
      valence      5  s   1.
      valence      4  p   6.
      valence      4  d   5.
  #     ion occupancy
      ion_occ     5  s   0.
      ion_occ     4  p   6.
      ion_occ     4  d   4.
  ################################################################################
  #
  #  Suggested additional basis functions. For production calculations,
  #  uncomment them one after another (the most important basis functions are
  #  listed first).
  #
  #  Constructed for dimers: 1.675 A, 1.9 A, 2.375 A, 3.00 A, 4.00 A
  #
  ################################################################################
  #  "First tier"  - max. impr. -711.23  meV, min. impr. -21.07 meV
       hydro 4 f 8.4
       hydro 3 d 2.8
       ionic 5 p auto
       hydro 5 g 12
       ionic 5 s auto
  #  "Second tier" - max. impr. -39.38  meV, min. impr. -2.68 meV
       hydro 4 f 12.4
       hydro 3 d 3.3
       hydro 6 h 17.2
       hydro 4 f 7.6
       hydro 3 p 3.0
       hydro 1 s 0.65
  #  "Third tier"  - max. impr. -5.50 meV, min. impr. -0.47 meV
  #     hydro 4 f 29.2
  #     hydro 5 g 11.2
  #     hydro 3 d 6.8
  #     hydro 6 h 14.8
  #     hydro 2 p 2.3
  #     hydro 4 s 3.8
  #  "Fourth tier"  - max. impr. -0.58 meV, min. impr. -0.19 meV
  #     hydro 5 f 6.8
  #     hydro 5 d 14.8
  #     hydro 6 s 7.8
  #     hydro 5 g 20.8
  #     hydro 5 d 10.4
  #     hydro 5 p 9.8
  #  Further functions - -0.17 meV and below
  #     hydro 5 d 3.2
  ################################################################################
  #
  #  FHI-aims code project
  # Volker Blum, Fritz Haber Institute Berlin, 2009
  #
  #  Suggested "tight" defaults for S atom (to be pasted into control.in file)
  #
  #  Revised Jan 04, 2011, following tests (SiC) done by Lydia Nemec:
  #     d and g functions of tier 2 now enabled by default.
  #
  ################################################################################
    species        S
  #     global species definitions
      nucleus             16
      mass                32.065
  #
      l_hartree           6
  #
      cut_pot             4.0          2.0  1.0
      basis_dep_cutoff    1e-4
  #
      radial_base         44 7.0
      radial_multiplier   2
      angular_grids       specified
        division   0.4665  110
        division   0.5810  194
        division   0.7139  302
        division   0.8274  434
  #      division   0.9105  590
  #      division   1.0975  770
  #      division   1.2028  974
  #      outer_grid  974
        outer_grid  434
  ################################################################################
  #
  #  Definition of "minimal" basis
  #
  ################################################################################
  #     valence basis states
      valence      3  s   2.
      valence      3  p   4.
  #     ion occupancy
      ion_occ      3  s   1.
      ion_occ      3  p   3.
  ################################################################################
  #
  #  Suggested additional basis functions. For production calculations,
  #  uncomment them one after another (the most important basis functions are
  #  listed first).
  #
  #  Constructed for dimers: 1.6 A, 1.9 A, 2.5 A, 3.25 A, 4.0 A
  #
  ################################################################################
  #  "First tier" - improvements: -652.81 meV to -45.53 meV
       ionic 3 d auto
       hydro 2 p 1.8
       hydro 4 f 7
       ionic 3 s auto
  #  "Second tier" - improvements: -30.20 meV to -1.74 meV
       hydro 4 d 6.2
       hydro 5 g 10.8
       hydro 4 p 4.9
       hydro 5 f 10
       hydro 1 s 0.8
  #  "Third tier" - improvements: -1.04 meV to -0.20 meV
  #     hydro 3 d 3.9
  #     hydro 3 d 2.7
  #     hydro 5 g 12
  #     hydro 4 p 10.4
  #     hydro 5 f 12.4
  #     hydro 2 s 1.9
  #  "Fourth tier" - improvements: -0.35 meV to -0.06 meV
  #     hydro 4 d 10.4
  #     hydro 4 p 7.2
  #     hydro 4 d 10
  #     hydro 5 g 19.2
  #     hydro 4 s 12
  #
  ################################################################################
  #
  # For methods that use the localized form of the "resolution of identity" for
  # the two-electron Coulomb operator (RI_method LVL), particularly Hartree-Fock and
  # hybrid density functional calculations, the highest accuracy can be obtained by
  # uncommenting the line beginning with "for_aux"  below, thus adding an extra g radial
  # function to the construction of the product basis set for the expansion.
  # See Ref. New J. Phys. 17, 093020 (2015) for more information, particularly Figs. 1 and 6.
  #
  ################################################################################
  #
  # for_aux hydro 5 g 6.0
  
  -----------------------------------------------------------------------
  Completed first pass over input file control.in .
  -----------------------------------------------------------------------
  
  
  -----------------------------------------------------------------------
  Parsing geometry.in (first pass over file, find array dimensions only).
  The contents of geometry.in will be repeated verbatim below
  unless switched off by setting 'verbatim_writeout .false.' .
  in the first line of geometry.in .
  -----------------------------------------------------------------------
  
  #=======================================================
  # FHI-aims file: ./geometry.in
  # Created using the Atomic Simulation Environment (ASE)
  # Sun Nov 17 12:43:15 2019
  #=======================================================
  lattice_vector 3.1903157300000000 0.0000000000000000 0.0000000000000000
  lattice_vector -1.5951578649999993 2.7628944682730965 0.0000000000000000
  lattice_vector 0.0000000000000000 0.0000000000000000 14.8790043000000001
  atom -0.0000015951578646 1.8419305664802204 3.7197510750000000 Mo
  atom 1.5951594601578656 0.9209639017928760 11.1592532250000005 Mo
  atom -0.0000015951578646 1.8419305664802204 12.7241376232482004 S
  atom 1.5951594601578656 0.9209639017928760 2.1548666767518001 S
  atom 1.5951562698421353 0.9209639017928760 5.2846354732481986 S
  atom 0.0000015951578655 1.8419305664802204 9.5943688267518006 S
  
  -----------------------------------------------------------------------
  Completed first pass over input file geometry.in .
  -----------------------------------------------------------------------
  

  Basic array size parameters:
  | Number of species                 :        2
  | Number of atoms                   :        6
  | Number of lattice vectors         :        3
  | Max. basis fn. angular momentum   :        5
  | Max. atomic/ionic basis occupied n:        5
  | Max. number of basis fn. types    :        3
  | Max. radial fns per species/type  :       10
  | Max. logarithmic grid size        :     1436
  | Max. radial integration grid size :      119
  | Max. angular integration grid size:      434
  | Max. angular grid division number :        8
  | Radial grid for Hartree potential :     1436
  | Number of spin channels           :        1

------------------------------------------------------------
          Reading file control.in.
------------------------------------------------------------
  XC: Using PBE gradient-corrected functionals.
  Spin treatment: No spin polarisation.
  Scalar relativistic treatment of kinetic energy: on-site free-atom approximation to ZORA.
  Calculating non-self-consistent second-variational spin-orbit coupling after scf-cycle
  S.C.F. convergence parameters will be adjusted in iteration number     2 of the first full s.c.f. cycle only.

  Plot band    1
  | begin  0.000000  0.000000  0.000000
  | end    0.500000  0.000000  0.000000
  | number of points:   31

  Plot band    2
  | begin  0.500000  0.000000  0.000000
  | end    0.333333  0.333333  0.000000
  | number of points:   31

  Plot band    3
  | begin  0.333333  0.333333  0.000000
  | end    0.000000  0.000000  0.000000
  | number of points:   31

  Plot band    4
  | begin  0.000000  0.000000  0.000000
  | end    0.000000  0.000000  0.500000
  | number of points:   31

  Plot band    5
  | begin  0.000000  0.000000  0.500000
  | end    0.500000  0.000000  0.500000
  | number of points:   31

  Plot band    6
  | begin  0.500000  0.000000  0.500000
  | end    0.333333  0.333333  0.500000
  | number of points:   31

  Plot band    7
  | begin  0.333333  0.333333  0.500000
  | end    0.000000  0.000000  0.500000
  | number of points:   31

  Plot band    8
  | begin  0.000000  0.000000  0.500000
  | end    0.500000  0.000000  0.500000
  | number of points:   31

  Plot band    9
  | begin  0.500000  0.000000  0.500000
  | end    0.500000  0.000000  0.000000
  | number of points:   31

  Plot band   10
  | begin  0.500000  0.000000  0.000000
  | end    0.333333  0.333333  0.000000
  | number of points:   31

  Plot band   11
  | begin  0.333333  0.333333  0.000000
  | end    0.333333  0.333333  0.500000
  | number of points:   31
  Found k-point grid:        12        12        12
  Found postscf_eigenvalues request to write the Kohn-Sham eigenvalues
  | across the Brillouin zone on a potentially dense k-space grid.
  | Currently, "output postscf_eigenvalues" is only supported when there are
  | more k-points in the s.c.f. "k_grid" than there are CPUs (serial eigenvalue solution).
 
  Reading configuration options for species Mo                  .
  | Found nuclear charge :  42.0000
  | Found atomic mass :    95.9400000000000      amu
  | Found l_max for Hartree potential  :   6
  | Found cutoff potl. onset [A], width [A], scale factor :    4.00000    2.00000    1.00000
  | Threshold for basis-dependent cutoff potential is   0.100000E-03
  | Found data for basic radial integration grid :    59 points, outermost radius =    7.000 A
  | Found multiplier for basic radial grid :   2
  | Found angular grid specification: user-specified.
  | Specified grid contains     6 separate shells.
  | Check grid settings after all constraints further below.
  | Found free-atom valence shell :  5 s   1.000
  | Found free-atom valence shell :  4 p   6.000
  | Found free-atom valence shell :  4 d   5.000
  | Found free-ion valence shell :  5 s   0.000
  | Found free-ion valence shell :  4 p   6.000
  | Found free-ion valence shell :  4 d   4.000
  | Found hydrogenic basis function :  4 f   8.400
  | Found hydrogenic basis function :  3 d   2.800
  | Found ionic basis function :  5 p , default cutoff radius.
  | Found hydrogenic basis function :  5 g  12.000
  | Found ionic basis function :  5 s , default cutoff radius.
  | Found hydrogenic basis function :  4 f  12.400
  | Found hydrogenic basis function :  3 d   3.300
  | Found hydrogenic basis function :  6 h  17.200
  | Found hydrogenic basis function :  4 f   7.600
  | Found hydrogenic basis function :  3 p   3.000
  | Found hydrogenic basis function :  1 s   0.650
  Species Mo                  : Missing cutoff potential type.
  Defaulting to exp(1/x)/(1-x)^2 type cutoff potential.
  Species Mo: No 'logarithmic' tag. Using default grid for free atom:
  | Default logarithmic grid data [bohr] : 0.1000E-03 0.1000E+03 0.1012E+01
  | Will include ionic basis functions of  2.0-fold positive Mo                   ion.
  Species Mo: On-site basis accuracy parameter (for Gram-Schmidt orthonormalisation) not specified.
  Using default value basis_acc =  0.1000000E-03.
  Species Mo                  : Using default innermost maximum threshold i_radial=  2 for radial functions.
  Species Mo                  : Default cutoff onset for free atom density etc. : 0.40000000E+01 AA.
  Species Mo                  : Basic radial grid will be enhanced according to radial_multiplier =   2, to contain   119 grid points.
 
  Reading configuration options for species S                   .
  | Found nuclear charge :  16.0000
  | Found atomic mass :    32.0650000000000      amu
  | Found l_max for Hartree potential  :   6
  | Found cutoff potl. onset [A], width [A], scale factor :    4.00000    2.00000    1.00000
  | Threshold for basis-dependent cutoff potential is   0.100000E-03
  | Found data for basic radial integration grid :    44 points, outermost radius =    7.000 A
  | Found multiplier for basic radial grid :   2
  | Found angular grid specification: user-specified.
  | Specified grid contains     5 separate shells.
  | Check grid settings after all constraints further below.
  | Found free-atom valence shell :  3 s   2.000
  | Found free-atom valence shell :  3 p   4.000
  | Found free-ion valence shell :  3 s   1.000
  | Found free-ion valence shell :  3 p   3.000
  | Found ionic basis function :  3 d , default cutoff radius.
  | Found hydrogenic basis function :  2 p   1.800
  | Found hydrogenic basis function :  4 f   7.000
  | Found ionic basis function :  3 s , default cutoff radius.
  | Found hydrogenic basis function :  4 d   6.200
  | Found hydrogenic basis function :  5 g  10.800
  | Found hydrogenic basis function :  4 p   4.900
  | Found hydrogenic basis function :  5 f  10.000
  | Found hydrogenic basis function :  1 s   0.800
  Species S                   : Missing cutoff potential type.
  Defaulting to exp(1/x)/(1-x)^2 type cutoff potential.
  Species S : No 'logarithmic' tag. Using default grid for free atom:
  | Default logarithmic grid data [bohr] : 0.1000E-03 0.1000E+03 0.1012E+01
  | Will include ionic basis functions of  2.0-fold positive S                    ion.
  Species S : On-site basis accuracy parameter (for Gram-Schmidt orthonormalisation) not specified.
  Using default value basis_acc =  0.1000000E-03.
  Species S                   : Using default innermost maximum threshold i_radial=  2 for radial functions.
  Species S                   : Default cutoff onset for free atom density etc. : 0.40000000E+01 AA.
  Species S                   : Basic radial grid will be enhanced according to radial_multiplier =   2, to contain    89 grid points.
 
  Finished reading input file 'control.in'. Consistency checks are next.
 
  MPI_IN_PLACE appears to work with this MPI implementation.
  | Keeping use_mpi_in_place .true. (see manual).
  Target number of points in a grid batch is not set. Defaulting to  100
  Method for grid partitioning is not set. Defaulting to parallel hash+maxmin partitioning.
  Batch size limit is not set. Defaulting to    200
  By default, will store active basis functions for each batch.
  If in need of memory, prune_basis_once .false. can be used to disable this option.
  communication_type for Hartree potential was not specified.
  Defaulting to calc_hartree .
  Defaulting to Pulay charge density mixer.
  Pulay mixer: Number of relevant iterations not set.
  Defaulting to    8 iterations.
  Pulay mixer: Number of initial linear mixing iterations not set.
  Defaulting to    0 iterations.
  Work space size for distributed Hartree potential not set.
  Defaulting to   0.200000E+03 MB.
  Mixing parameter for charge density mixing has not been set.
  Using default: charge_mix_param =     0.0500.
  The mixing parameter will be adjusted in iteration number     2 of the first full s.c.f. cycle only.
  Algorithm-dependent basis array size parameters:
  | n_max_pulay                         :        8
 * Notice: The s.c.f. convergence criterion sc_accuracy_rho was not provided.
 * We used to stop in this case, and ask the user to provide reasonable
 * scf convergence criteria. However, this led some users to employ criteria
 * that led to extremely long run times, e.g., for simple relaxation.
 * We now preset a default value for sc_accuracy_rho if it is not set.
 * You may still wish to check if this setting is too tight or too loose for your needs.
 * Based on n_atoms, FHI-aims chose sc_accuracy_rho =  0.100000E-05 .
  Maximum number of self-consistency iterations not provided.
  Presetting  1000 iterations.
  Presetting      1001 iterations before the initial mixing cycle
  is restarted anyway using the sc_init_iter criterion / keyword.
  Presetting a factor      1.000 between actual scf density residual
  and density convergence criterion sc_accuracy_rho below which sc_init_iter
  takes no effect.
 * No s.c.f. convergence criteria (sc_accuracy_*) were provided in control.in.
 * The run will proceed with a reasonable default guess, but please check whether.
 * the s.c.f. cycles seem to take too much or too little time.
  Calculation of forces was not defined in control.in. No forces will be calculated.
  Geometry relaxation not requested: no relaxation will be performed.
  No accuracy limit for integral partition fn. given. Defaulting to  0.1000E-14.
  No threshold value for u(r) in integrations given. Defaulting to  0.1000E-05.
  No occupation type (smearing scheme) given. Defaulting to Gaussian broadening, width =  0.1000E-01 eV.
  The width will be adjusted in iteration number     2 of the first full s.c.f. cycle only.
  S.C.F. convergence parameters will be adjusted in iteration number     2 of the first full s.c.f. cycle only.
  No accuracy for occupation numbers given. Defaulting to  0.1000E-12.
  No threshold value for occupation numbers given. Defaulting to  0.0000E+00.
  No accuracy for fermi level given. Defaulting to  0.1000E-19.
  Maximum # of iterations to find E_F not set. Defaulting to  200.
  Preferred method for the eigenvalue solver ('KS_method') not specified in 'control.in'.
  Defaulting to serial version, 'lapack_fast', since more k-points than CPUs available.
  Will not use alltoall communication since running on < 1024 CPUs.
  Threshold for basis singularities not set.
  Default threshold for basis singularities:  0.1000E-04
  partition_type (choice of integration weights) for integrals was not specified.
  | Using a version of the partition function of Stratmann and coworkers ('stratmann_smoother').
  | At each grid point, the set of atoms used to build the partition table is smoothly restricted to
  | only those atoms whose free-atom density would be non-zero at that grid point.
  Partitioning for Hartree potential was not defined. Using partition_type for integrals.
  | Adjusted default value of keyword multip_moments_threshold to:       0.10000000E-11
  | This value may affect high angular momentum components of the Hartree potential in periodic systems.
  Angular momentum expansion for Kerker preconditioner not set explicitly.
  | Using default value of   0
  No explicit requirement for turning off preconditioner.
  | By default, it will be turned off when the charge convergence reaches
  | sc_accuracy_rho  =   0.100000E-05
  No special mixing parameter while Kerker preconditioner is on.
  Using default: charge_mix_param =     0.0500.
  No q(lm)/r^(l+1) cutoff set for long-range Hartree potential.
  | Using default value of  0.100000E-09 .
  | Verify using the multipole_threshold keyword.
  Defaulting to new monopole extrapolation.
  Density update method: automatic selection selected.
  Using density matrix based charge density update.
  Using density matrix based charge density update.
  Using packed matrix style: index .
  Defaulting to use time-reversal symmetry for k-point grid.
 * Warning. Found "output postscf_eigenvalues" request but no dos_kgrid_factors.
 * Switching "output_dos_kgrid_factors on with minimal values (1). 
 * However, additional restrictions currently apply along this code path and may
 * lead to errors below. In that case, please work with us to identify them.
------------------------------------------------------------


------------------------------------------------------------
          Reading geometry description geometry.in.
------------------------------------------------------------
  Input structure read successfully.
  The structure contains        6 atoms,  and a total of        148.000 electrons.

  Input geometry:
  | Unit cell:
  |        3.19031573        0.00000000        0.00000000
  |       -1.59515786        2.76289447        0.00000000
  |        0.00000000        0.00000000       14.87900430
  | Atomic structure:
  |       Atom                x [A]            y [A]            z [A]
  |    1: Species Mo           -0.00000160        1.84193057        3.71975108
  |    2: Species Mo            1.59515946        0.92096390       11.15925323
  |    3: Species S            -0.00000160        1.84193057       12.72413762
  |    4: Species S             1.59515946        0.92096390        2.15486668
  |    5: Species S             1.59515627        0.92096390        5.28463547
  |    6: Species S             0.00000160        1.84193057        9.59436883

  Lattice parameters for 3D lattice (in Angstroms) :     3.190316    3.190316   14.879004
  Angle(s) between unit vectors (in degrees)      :    90.000000   90.000000  120.000000

  |

  | The smallest distance between any two atoms is         2.41693219 AA.
  |
  | The first atom of this pair is atom number                      2 .
  | The second atom of this pair is atom number                     6 .
  | Wigner-Seitz cell of the first atom image           1     0     0 .
  | (The Wigner-Seitz cell of the second atom is 0 0 0  by definition.)

  Quantities derived from the lattice vectors:
  | Reciprocal lattice vector 1:  1.969456  1.137066  0.000000
  | Reciprocal lattice vector 2: -0.000000  2.274131  0.000000
  | Reciprocal lattice vector 3:  0.000000  0.000000  0.422285
  | Unit cell volume                               :   0.131151E+03  A^3

  Range separation radius for Ewald summation (hartree_convergence_parameter):      4.01572208 bohr.

  Fractional coordinates:
                         L1                L2                L3
       atom_frac         0.33333300        0.66666700        0.25000000  Mo
       atom_frac         0.66666700        0.33333300        0.75000000  Mo
       atom_frac         0.33333300        0.66666700        0.85517400  S
       atom_frac         0.66666700        0.33333300        0.14482600  S
       atom_frac         0.66666600        0.33333300        0.35517400  S
       atom_frac         0.33333400        0.66666700        0.64482600  S

  Number of empty states per atom not set in control.in - providing a guess from actual geometry.
  | Total number of empty states used during s.c.f. cycle:       23
  If you use a very high smearing, use empty_states (per atom!) in control.in to increase this value.

  Structure-dependent array size parameters: 
  | Maximum number of distinct radial functions  :       35
  | Maximum number of basis functions            :      366
  | Number of Kohn-Sham states (occupied + empty):       97
------------------------------------------------------------

------------------------------------------------------------
          Preparing all fixed parts of the calculation.
------------------------------------------------------------
  Determining machine precision:
    2.225073858507201E-308
  Setting up grids for atomic and cluster calculations.

  Creating wave function, potential, and density for free atoms.

  Species: Mo

  List of occupied orbitals and eigenvalues:
    n    l              occ      energy [Ha]    energy [eV]
    1    0           2.0000      -745.344654    -20281.8600
    2    0           2.0000      -103.288246     -2810.6162
    3    0           2.0000       -17.516687      -476.6533
    4    0           2.0000        -2.358559       -64.1796
    5    0           1.0000        -0.145159        -3.9500
    2    1           6.0000       -92.308627     -2511.8455
    3    1           6.0000       -13.936005      -379.2180
    4    1           6.0000        -1.408138       -38.3174
    3    2          10.0000        -8.119011      -220.9295
    4    2           5.0000        -0.132984        -3.6187


  Species: S

  List of occupied orbitals and eigenvalues:
    n    l              occ      energy [Ha]    energy [eV]
    1    0           2.0000       -88.680731     -2413.1255
    2    0           2.0000        -7.781719      -211.7513
    3    0           2.0000        -0.633662       -17.2428
    2    1           6.0000        -5.751976      -156.5192
    3    1           4.0000        -0.257086        -6.9957

  Creating fixed part of basis set: Ionic, confined, hydrogenic.
 
  Mo                   ion:

  List of free ionic orbitals and eigenvalues:
    n    l      energy [Ha]    energy [eV]
    1    0      -746.048685    -20301.0176
    2    0      -103.980912     -2829.4646
    3    0       -18.206601      -495.4268
    4    0        -3.040545       -82.7374
    2    1       -93.001013     -2530.6863
    3    1       -14.625827      -397.9890
    4    1        -2.084855       -56.7318
    3    2        -8.808854      -239.7011
    4    2        -0.765435       -20.8285


  List of ionic basis orbitals and eigenvalues:
    n    l      energy [Ha]    energy [eV]    outer radius [A]
    5    1        -0.465587       -12.6693       5.456393
    5    0        -0.650331       -17.6964       5.390095

 
  Mo                   hydrogenic:
 
  List of hydrogenic basis orbitals: 
    n    l      effective z      eigenvalue [eV]  inner max. [A]     outer max. [A]     outer radius [A]   
    4    3         8.400000       -60.0010           1.009788           1.009788           4.487018
    3    2         2.800000       -11.8048           1.687401           1.687401           5.456393
    5    4        12.000000       -78.3687           1.100005           1.100005           4.432498
    4    3        12.400000      -130.7506           0.682864           0.682864           3.428897
    3    2         3.300000       -16.4532           1.439455           1.439455           5.456393
    6    5        17.200000      -111.8085           1.113535           1.113535           4.169676
    4    3         7.600000       -49.1164           1.113535           1.113535           4.828511
    3    1         3.000000       -13.5316           0.528251           2.102736           5.456393
    1    0         0.650000        -5.7375           0.810333           0.810333           5.456393
 
 
  S                    ion:

  List of free ionic orbitals and eigenvalues:
    n    l      energy [Ha]    energy [eV]
    1    0       -89.703778     -2440.9640
    2    0        -8.775428      -238.7916
    3    0        -1.470343       -40.0101
    2    1        -6.747660      -183.6132
    3    1        -1.048627       -28.5346


  List of ionic basis orbitals and eigenvalues:
    n    l      energy [Ha]    energy [eV]    outer radius [A]
    3    2        -0.495605       -13.4861       5.386362
    3    0        -1.470336       -40.0099       3.967934

 
  S                    hydrogenic:
 
  List of hydrogenic basis orbitals: 
    n    l      effective z      eigenvalue [eV]  inner max. [A]     outer max. [A]     outer radius [A]   
    2    1         1.800000       -11.0118           1.168531           1.168531           5.452614
    4    3         7.000000       -41.6672           1.212182           1.212182           5.066981
    4    2         6.200000       -32.6848           0.582121           1.814567           5.386362
    5    4        10.800000       -63.4785           1.227092           1.227092           4.766538
    4    1         4.900000       -20.2928           0.304525           2.524192           5.452614
    5    3        10.000000       -54.4226           0.641929           1.727969           5.320915
    1    0         0.800000        -8.7059           0.657818           0.657818           5.386362
 

  Adding cutoff potential to free-atom effective potential.
  Creating atomic-like basis functions for current effective potential.

  Species Mo                  :

  List of atomic basis orbitals and eigenvalues:
    n    l      energy [Ha]    energy [eV]    outer radius [A]
    1    0      -745.344654    -20281.8600       0.247552
    2    0      -103.288246     -2810.6162       0.682864
    3    0       -17.516687      -476.6533       1.626637
    4    0        -2.358559       -64.1796       4.220963
    5    0        -0.145159        -3.9500       5.456393
    2    1       -92.308627     -2511.8455       0.699766
    3    1       -13.936005      -379.2180       1.793761
    4    1        -1.408138       -38.3174       4.828511
    3    2        -8.119011      -220.9295       2.181285
    4    2        -0.132984        -3.6187       5.390095


  Species S                   :

  List of atomic basis orbitals and eigenvalues:
    n    l      energy [Ha]    energy [eV]    outer radius [A]
    1    0       -88.680731     -2413.1255       0.682391
    2    0        -7.781719      -211.7513       2.289014
    3    0        -0.633662       -17.2428       5.256262
    2    1        -5.751976      -156.5192       2.555240
    3    1        -0.257086        -6.9957       5.386362

  Assembling full basis from fixed parts.
  | Species Mo :   atomic orbital   1 s accepted.
  | Species Mo :   atomic orbital   2 s accepted.
  | Species Mo :   atomic orbital   3 s accepted.
  | Species Mo :   atomic orbital   4 s accepted.
  | Species Mo :    ionic orbital   5 s accepted.
  | Species Mo :   atomic orbital   5 s accepted.
  | Species Mo :    hydro orbital   1 s accepted.
  | Species Mo :   atomic orbital   2 p accepted.
  | Species Mo :   atomic orbital   3 p accepted.
  | Species Mo :   atomic orbital   4 p accepted.
  | Species Mo :    ionic orbital   5 p accepted.
  | Species Mo :    hydro orbital   3 p accepted.
  | Species Mo :   atomic orbital   3 d accepted.
  | Species Mo :   atomic orbital   4 d accepted.
  | Species Mo :    hydro orbital   3 d accepted.
  | Species Mo :    hydro orbital   3 d accepted.
  | Species Mo :    hydro orbital   4 f accepted.
  | Species Mo :    hydro orbital   4 f accepted.
  | Species Mo :    hydro orbital   4 f accepted.
  | Species Mo :    hydro orbital   5 g accepted.
  | Species Mo :    hydro orbital   6 h accepted.
  | Species S :   atomic orbital   1 s accepted.
  | Species S :   atomic orbital   2 s accepted.
  | Species S :    ionic orbital   3 s accepted.
  | Species S :   atomic orbital   3 s accepted.
  | Species S :    hydro orbital   1 s accepted.
  | Species S :   atomic orbital   2 p accepted.
  | Species S :   atomic orbital   3 p accepted.
  | Species S :    hydro orbital   2 p accepted.
  | Species S :    hydro orbital   4 p accepted.
  | Species S :    ionic orbital   3 d accepted.
  | Species S :    hydro orbital   4 d accepted.
  | Species S :    hydro orbital   4 f accepted.
  | Species S :    hydro orbital   5 f accepted.
  | Species S :    hydro orbital   5 g accepted.
 
  Basis size parameters after reduction:
  | Total number of radial functions:       35
  | Total number of basis functions :      366
 
  Per-task memory consumption for arrays in subroutine allocate_ext:
  |          12.876952MB.
  Testing on-site integration grid accuracy.
  |  Species  Function  <phi|h_atom|phi> (log., in eV)  <phi|h_atom|phi> (rad., in eV)
           1        1             -20281.8599610543             -20281.8584300616
           1        2              -2810.6161812280              -2810.6161551921
           1        3               -476.6533163555               -476.6533136395
           1        4                -64.1796433667                -64.1796426456
           1        5                 -3.3691762756                 -3.3691802887
           1        6                  4.4704608512                  4.4699102345
           1        7                 47.6285199283                 47.6283663304
           1        8              -2511.8455406047              -2511.8455385741
           1        9               -379.2179896350               -379.2179882338
           1       10                -38.3173891619                -38.3173886619
           1       11                  0.2493245095                  0.2492931069
           1       12                 12.9899978429                 12.9896957264
           1       13               -220.9295301098               -220.9295297081
           1       14                 -3.6195697699                 -3.6195754704
           1       15                  7.1428000922                  7.1426882355
           1       16                 20.1860643586                 20.1854440119
           1       17                 39.6800378350                 39.6800378704
           1       18                 41.9987405107                 41.9987406673
           1       19                 51.4938078473                 51.4938137886
           1       20                 50.2449608881                 50.2449608586
           1       21                 84.8920029004                 84.8920028797
           2       22              -2413.1254568977              -2413.1254096663
           2       23               -211.7513411281               -211.7513404762
           2       24                -16.9725280787                -16.9725279206
           2       25                  7.6024436204                  7.6024549059
           2       26                 48.5754986812                 48.5751292874
           2       27               -156.5192206929               -156.5192205451
           2       28                 -6.9959757887                 -6.9959777655
           2       29                  6.8896462808                  6.8895564741
           2       30                 27.2255287135                 27.2252601701
           2       31                  6.0214250550                  6.0214220200
           2       32                 19.6206468977                 19.6206494558
           2       33                 24.7008710786                 24.7008710738
           2       34                 58.2239314521                 58.2239319465
           2       35                 47.5292252001                 47.5292260486

  Preparing densities etc. for the partition functions (integrals / Hartree potential).

  Preparations completed.
  max(cpu_time)          :      0.436 s.
  Wall clock time (cpu1) :      0.430 s.
------------------------------------------------------------

------------------------------------------------------------
          Begin self-consistency loop: Initialization.

          Date     :  20191117, Time     :  154946.899
------------------------------------------------------------

  Initializing index lists of integration centers etc. from given atomic structure:
  Mapping all atomic coordinates to central unit cell.

  Initializing the k-points
          Using symmetry for reducing the k-points
  | k-points reduced from:     1728 to      868
  | Number of k-points                             :       868
  The eigenvectors in the calculations are COMPLEX.
  | K-points in task   0:        10
  | K-points in task   1:        11
  | K-points in task   2:        11
  | K-points in task   3:        11
  | K-points in task   4:        11
  | K-points in task   5:        11
  | K-points in task   6:        11
  | K-points in task   7:        11
  | K-points in task   8:        11
  | K-points in task   9:        11
  | K-points in task  10:        11
  | K-points in task  11:        11
  | K-points in task  12:        11
  | K-points in task  13:        11
  | K-points in task  14:        11
  | K-points in task  15:        11
  | K-points in task  16:        11
  | K-points in task  17:        11
  | K-points in task  18:        11
  | K-points in task  19:        11
  | K-points in task  20:        11
  | K-points in task  21:        11
  | K-points in task  22:        11
  | K-points in task  23:        11
  | K-points in task  24:        11
  | K-points in task  25:        11
  | K-points in task  26:        11
  | K-points in task  27:        11
  | K-points in task  28:        11
  | K-points in task  29:        11
  | K-points in task  30:        11
  | K-points in task  31:        11
  | K-points in task  32:        11
  | K-points in task  33:        11
  | K-points in task  34:        11
  | K-points in task  35:        11
  | K-points in task  36:        11
  | K-points in task  37:        11
  | K-points in task  38:        11
  | K-points in task  39:        11
  | K-points in task  40:        11
  | K-points in task  41:        11
  | K-points in task  42:        11
  | K-points in task  43:        11
  | K-points in task  44:        11
  | K-points in task  45:        11
  | K-points in task  46:        11
  | K-points in task  47:        11
  | K-points in task  48:        11
  | K-points in task  49:        11
  | K-points in task  50:        11
  | K-points in task  51:        11
  | K-points in task  52:        11
  | K-points in task  53:        11
  | K-points in task  54:        11
  | K-points in task  55:        11
  | K-points in task  56:        11
  | K-points in task  57:        11
  | K-points in task  58:        11
  | K-points in task  59:        11
  | K-points in task  60:        11
  | K-points in task  61:        11
  | K-points in task  62:        11
  | K-points in task  63:        11
  | K-points in task  64:        11
  | K-points in task  65:        11
  | K-points in task  66:        11
  | K-points in task  67:        11
  | K-points in task  68:        11
  | K-points in task  69:        10
  | K-points in task  70:        10
  | K-points in task  71:        10
  | K-points in task  72:        10
  | K-points in task  73:        10
  | K-points in task  74:        10
  | K-points in task  75:        10
  | K-points in task  76:        10
  | K-points in task  77:        10
  | K-points in task  78:        10
  | K-points in task  79:        10
  | Number of basis functions in the Hamiltonian integrals :      9346
  | Number of basis functions in a single unit cell        :       366
  | Number of centers in hartree potential         :      1276
  | Number of centers in hartree multipole         :       708
  | Number of centers in electron density summation:       566
  | Number of centers in basis integrals           :       602
  | Number of centers in integrals                 :       238
  | Number of centers in hamiltonian               :       566
  | Consuming       2305 KiB for k_phase.
  | Number of super-cells (origin) [n_cells]                     :        1125
  | Number of super-cells (after PM_index) [n_cells]             :         170
  | Number of super-cells in hamiltonian [n_cells_in_hamiltonian]:         170
  | Size of matrix packed + index [n_hamiltonian_matrix_size] :     2030657
  Partitioning the integration grid into batches with parallel hashing+maxmin method.
  | Number of batches:     1760
  | Maximal batch size:     111
  | Minimal batch size:      54
  | Average batch size:      84.089
  | Standard deviation of batch sizes:      15.037

  Integration load balanced across    80 MPI tasks.
  Work distribution over tasks is as follows:
  Task     0 has       1796 integration points.
  Task     1 has       1852 integration points.
  Task     2 has       1863 integration points.
  Task     3 has       1868 integration points.
  Task     4 has       1799 integration points.
  Task     5 has       1864 integration points.
  Task     6 has       1798 integration points.
  Task     7 has       1796 integration points.
  Task     8 has       1842 integration points.
  Task     9 has       1877 integration points.
  Task    10 has       1867 integration points.
  Task    11 has       1863 integration points.
  Task    12 has       1862 integration points.
  Task    13 has       1834 integration points.
  Task    14 has       1874 integration points.
  Task    15 has       1844 integration points.
  Task    16 has       1864 integration points.
  Task    17 has       1876 integration points.
  Task    18 has       1800 integration points.
  Task    19 has       1861 integration points.
  Task    20 has       1830 integration points.
  Task    21 has       1859 integration points.
  Task    22 has       1871 integration points.
  Task    23 has       1871 integration points.
  Task    24 has       1860 integration points.
  Task    25 has       1837 integration points.
  Task    26 has       1825 integration points.
  Task    27 has       1798 integration points.
  Task    28 has       1862 integration points.
  Task    29 has       1808 integration points.
  Task    30 has       1863 integration points.
  Task    31 has       1866 integration points.
  Task    32 has       1866 integration points.
  Task    33 has       1866 integration points.
  Task    34 has       1856 integration points.
  Task    35 has       1832 integration points.
  Task    36 has       1799 integration points.
  Task    37 has       1861 integration points.
  Task    38 has       1841 integration points.
  Task    39 has       1797 integration points.
  Task    40 has       1864 integration points.
  Task    41 has       1864 integration points.
  Task    42 has       1862 integration points.
  Task    43 has       1861 integration points.
  Task    44 has       1905 integration points.
  Task    45 has       1858 integration points.
  Task    46 has       1861 integration points.
  Task    47 has       1838 integration points.
  Task    48 has       1795 integration points.
  Task    49 has       1799 integration points.
  Task    50 has       1860 integration points.
  Task    51 has       1858 integration points.
  Task    52 has       1795 integration points.
  Task    53 has       1795 integration points.
  Task    54 has       1868 integration points.
  Task    55 has       1866 integration points.
  Task    56 has       1862 integration points.
  Task    57 has       1864 integration points.
  Task    58 has       1877 integration points.
  Task    59 has       1880 integration points.
  Task    60 has       1865 integration points.
  Task    61 has       1859 integration points.
  Task    62 has       1868 integration points.
  Task    63 has       1860 integration points.
  Task    64 has       1860 integration points.
  Task    65 has       1861 integration points.
  Task    66 has       1867 integration points.
  Task    67 has       1873 integration points.
  Task    68 has       1797 integration points.
  Task    69 has       1866 integration points.
  Task    70 has       1854 integration points.
  Task    71 has       1855 integration points.
  Task    72 has       1859 integration points.
  Task    73 has       1864 integration points.
  Task    74 has       1868 integration points.
  Task    75 has       1863 integration points.
  Task    76 has       1858 integration points.
  Task    77 has       1872 integration points.
  Task    78 has       1864 integration points.
  Task    79 has       1863 integration points.
  Initializing partition tables, free-atom densities, potentials, etc. across the integration grid (initialize_grid_storage).
  | initialize_grid_storage: Actual outermost partition radius vs. multipole_radius_free
  | (-- VB: in principle, multipole_radius_free should be larger, hence this output)
  | Species        1: Confinement radius =              6.000000000000000 AA, multipole_radius_free =              6.016994434057369 AA.
  | Species        1: outer_partition_radius set to              6.016994434057369 AA .
  | Species        2: Confinement radius =              6.000000000000000 AA, multipole_radius_free =              6.012827091137924 AA.
  | Species        2: outer_partition_radius set to              6.012827091137924 AA .
  | Original list of interatomic distances with         602 x        602 entries is created.
  | Net number of integration points:   147996
  | of which are non-zero points    :   117516
  | Numerical average free-atom electrostatic potential    :    -14.80655792 eV
  Renormalizing the initial density to the exact electron count on the 3D integration grid.
  | Initial density: Formal number of electrons (from input files) :     148.0000000000
  | Integrated number of electrons on 3D grid     :     147.9998749112
  | Charge integration error                      :      -0.0001250888
  | Normalization factor for density and gradient :       1.0000008452
  Obtaining max. number of non-zero basis functions in each batch (get_n_compute_maxes).
  | Maximal number of non-zero basis functions:     2063 in task     0
  | Maximal number of non-zero basis functions:     1757 in task     1
  | Maximal number of non-zero basis functions:     1869 in task     2
  | Maximal number of non-zero basis functions:     1871 in task     3
  | Maximal number of non-zero basis functions:     1809 in task     4
  | Maximal number of non-zero basis functions:     1829 in task     5
  | Maximal number of non-zero basis functions:     1831 in task     6
  | Maximal number of non-zero basis functions:     1861 in task     7
  | Maximal number of non-zero basis functions:     1864 in task     8
  | Maximal number of non-zero basis functions:     1841 in task     9
  | Maximal number of non-zero basis functions:     1967 in task    10
  | Maximal number of non-zero basis functions:     1780 in task    11
  | Maximal number of non-zero basis functions:     1907 in task    12
  | Maximal number of non-zero basis functions:     1801 in task    13
  | Maximal number of non-zero basis functions:     1833 in task    14
  | Maximal number of non-zero basis functions:     1888 in task    15
  | Maximal number of non-zero basis functions:     1848 in task    16
  | Maximal number of non-zero basis functions:     1799 in task    17
  | Maximal number of non-zero basis functions:     1816 in task    18
  | Maximal number of non-zero basis functions:     1857 in task    19
  | Maximal number of non-zero basis functions:     1844 in task    20
  | Maximal number of non-zero basis functions:     1915 in task    21
  | Maximal number of non-zero basis functions:     1859 in task    22
  | Maximal number of non-zero basis functions:     1904 in task    23
  | Maximal number of non-zero basis functions:     1784 in task    24
  | Maximal number of non-zero basis functions:     1796 in task    25
  | Maximal number of non-zero basis functions:     1811 in task    26
  | Maximal number of non-zero basis functions:     1832 in task    27
  | Maximal number of non-zero basis functions:     1907 in task    28
  | Maximal number of non-zero basis functions:     1967 in task    29
  | Maximal number of non-zero basis functions:     1813 in task    30
  | Maximal number of non-zero basis functions:     1845 in task    31
  | Maximal number of non-zero basis functions:     1851 in task    32
  | Maximal number of non-zero basis functions:     1810 in task    33
  | Maximal number of non-zero basis functions:     1837 in task    34
  | Maximal number of non-zero basis functions:     1826 in task    35
  | Maximal number of non-zero basis functions:     1862 in task    36
  | Maximal number of non-zero basis functions:     1868 in task    37
  | Maximal number of non-zero basis functions:     1806 in task    38
  | Maximal number of non-zero basis functions:     1777 in task    39
  | Maximal number of non-zero basis functions:     1892 in task    40
  | Maximal number of non-zero basis functions:     1821 in task    41
  | Maximal number of non-zero basis functions:     1803 in task    42
  | Maximal number of non-zero basis functions:     1817 in task    43
  | Maximal number of non-zero basis functions:     2063 in task    44
  | Maximal number of non-zero basis functions:     1876 in task    45
  | Maximal number of non-zero basis functions:     1905 in task    46
  | Maximal number of non-zero basis functions:     1860 in task    47
  | Maximal number of non-zero basis functions:     1807 in task    48
  | Maximal number of non-zero basis functions:     1825 in task    49
  | Maximal number of non-zero basis functions:     2063 in task    50
  | Maximal number of non-zero basis functions:     1905 in task    51
  | Maximal number of non-zero basis functions:     1832 in task    52
  | Maximal number of non-zero basis functions:     1853 in task    53
  | Maximal number of non-zero basis functions:     1845 in task    54
  | Maximal number of non-zero basis functions:     1876 in task    55
  | Maximal number of non-zero basis functions:     1809 in task    56
  | Maximal number of non-zero basis functions:     1967 in task    57
  | Maximal number of non-zero basis functions:     1905 in task    58
  | Maximal number of non-zero basis functions:     1822 in task    59
  | Maximal number of non-zero basis functions:     1775 in task    60
  | Maximal number of non-zero basis functions:     1827 in task    61
  | Maximal number of non-zero basis functions:     1857 in task    62
  | Maximal number of non-zero basis functions:     1899 in task    63
  | Maximal number of non-zero basis functions:     1830 in task    64
  | Maximal number of non-zero basis functions:     1863 in task    65
  | Maximal number of non-zero basis functions:     2063 in task    66
  | Maximal number of non-zero basis functions:     1848 in task    67
  | Maximal number of non-zero basis functions:     1824 in task    68
  | Maximal number of non-zero basis functions:     1840 in task    69
  | Maximal number of non-zero basis functions:     1832 in task    70
  | Maximal number of non-zero basis functions:     1818 in task    71
  | Maximal number of non-zero basis functions:     1815 in task    72
  | Maximal number of non-zero basis functions:     1806 in task    73
  | Maximal number of non-zero basis functions:     1826 in task    74
  | Maximal number of non-zero basis functions:     1883 in task    75
  | Maximal number of non-zero basis functions:     1903 in task    76
  | Maximal number of non-zero basis functions:     1807 in task    77
  | Maximal number of non-zero basis functions:     1839 in task    78
  | Maximal number of non-zero basis functions:     1881 in task    79
  Allocating        5.680 MB for KS_eigenvector_complex
  Integrating Hamiltonian matrix: batch-based integration.
  Time summed over all CPUs for integration: real work       77.476 s, elapsed       81.024 s
  Integrating overlap matrix.
  Time summed over all CPUs for integration: real work       60.057 s, elapsed       63.562 s
  Decreasing sparse matrix size:
   Tolerance:  9.999999824516700E-014
   Hamiltonian matrix
  | Array has  1694485 nonzero elements out of  2030657 elements
  | Sparsity factor is 0.166
   Overlap matrix
  | Array has  1536050 nonzero elements out of  2030657 elements
  | Sparsity factor is 0.244
  New size of hamiltonian matrix:     1695791

  Updating Kohn-Sham eigenvalues and eigenvectors using ELSI and the ELPA eigensolver.
  Overlap matrix is nonsingular
  | Lowest eigenvalue of overlap  :  0.94E-04
  | Highest eigenvalue of overlap :  0.13E+02
  Finished singularity check of overlap matrix
  | Time :     0.023 s
  Finished Cholesky decomposition
  | Time :     0.007 s
  Finished transformation to standard eigenproblem
  | Time :     0.011 s
  Starting LAPACK eigensolver
  Finished solving standard eigenproblem
  | Time :     0.026 s
  Finished back-transformation of eigenvectors
  | Time :     0.002 s

  Obtaining occupation numbers and chemical potential using ELSI.
  | Chemical potential (Fermi level):    -4.19355772eV
  Writing Kohn-Sham eigenvalues.
  K-point:       1 at    0.000000    0.000000    0.000000 (in units of recip. lattice)

  State    Occupation    Eigenvalue [Ha]    Eigenvalue [eV]
      1       2.00000        -745.361753       -20282.32525
      2       2.00000        -745.361753       -20282.32525
      3       2.00000        -103.305865        -2811.09562
      4       2.00000        -103.305865        -2811.09562
      5       2.00000         -92.326236        -2512.32471
      6       2.00000         -92.326236        -2512.32471
      7       2.00000         -92.326236        -2512.32471
      8       2.00000         -92.326236        -2512.32471
      9       2.00000         -92.326221        -2512.32429
     10       2.00000         -92.326221        -2512.32429
     11       2.00000         -88.712147        -2413.98034
     12       2.00000         -88.712147        -2413.98034
     13       2.00000         -88.712147        -2413.98034
     14       2.00000         -88.712147        -2413.98034
     15       2.00000         -17.535931         -477.17697
     16       2.00000         -17.535931         -477.17697
     17       2.00000         -13.955357         -379.74458
     18       2.00000         -13.955357         -379.74458
     19       2.00000         -13.955357         -379.74458
     20       2.00000         -13.955357         -379.74458
     21       2.00000         -13.955221         -379.74088
     22       2.00000         -13.955221         -379.74088
     23       2.00000          -8.138323         -221.45503
     24       2.00000          -8.138323         -221.45503
     25       2.00000          -8.138323         -221.45503
     26       2.00000          -8.138323         -221.45503
     27       2.00000          -8.138250         -221.45306
     28       2.00000          -8.138250         -221.45306
     29       2.00000          -8.138250         -221.45306
     30       2.00000          -8.138250         -221.45306
     31       2.00000          -8.138178         -221.45110
     32       2.00000          -8.138178         -221.45110
     33       2.00000          -7.815998         -212.68412
     34       2.00000          -7.815997         -212.68411
     35       2.00000          -7.815997         -212.68411
     36       2.00000          -7.815997         -212.68411
     37       2.00000          -5.786204         -157.45061
     38       2.00000          -5.786204         -157.45061
     39       2.00000          -5.786204         -157.45061
     40       2.00000          -5.786204         -157.45061
     41       2.00000          -5.785781         -157.43912
     42       2.00000          -5.785781         -157.43912
     43       2.00000          -5.785781         -157.43911
     44       2.00000          -5.785781         -157.43911
     45       2.00000          -5.785781         -157.43911
     46       2.00000          -5.785781         -157.43911
     47       2.00000          -5.785781         -157.43911
     48       2.00000          -5.785781         -157.43911
     49       2.00000          -2.393569          -65.13232
     50       2.00000          -2.393569          -65.13232
     51       2.00000          -1.453476          -39.55109
     52       2.00000          -1.453476          -39.55109
     53       2.00000          -1.443593          -39.28217
     54       2.00000          -1.443593          -39.28217
     55       2.00000          -1.443593          -39.28217
     56       2.00000          -1.443593          -39.28217
     57       2.00000          -0.777006          -21.14341
     58       2.00000          -0.776437          -21.12794
     59       2.00000          -0.728180          -19.81478
     60       2.00000          -0.727139          -19.78646
     61       2.00000          -0.452983          -12.32630
     62       2.00000          -0.446986          -12.16312
     63       2.00000          -0.329058           -8.95412
     64       2.00000          -0.327258           -8.90515
     65       2.00000          -0.327258           -8.90514
     66       2.00000          -0.327228           -8.90434
     67       2.00000          -0.327228           -8.90433
     68       2.00000          -0.311366           -8.47271
     69       2.00000          -0.290752           -7.91177
     70       2.00000          -0.290751           -7.91173
     71       2.00000          -0.290659           -7.90924
     72       2.00000          -0.290658           -7.90921
     73       2.00000          -0.221231           -6.01999
     74       2.00000          -0.206918           -5.63052
     75       0.00000          -0.126131           -3.43219
     76       0.00000          -0.126129           -3.43214
     77       0.00000          -0.126119           -3.43186
     78       0.00000          -0.126117           -3.43182
     79       0.00000          -0.122001           -3.31980
     80       0.00000          -0.122000           -3.31978
     81       0.00000          -0.121664           -3.31064
     82       0.00000          -0.121663           -3.31062
     83       0.00000          -0.028424           -0.77345
     84       0.00000          -0.022915           -0.62355
     85       0.00000           0.018342            0.49911
     86       0.00000           0.025074            0.68229
     87       0.00000           0.076625            2.08506
     88       0.00000           0.079236            2.15613
     89       0.00000           0.146604            3.98931
     90       0.00000           0.146605            3.98933
     91       0.00000           0.147930            4.02537
     92       0.00000           0.147931            4.02540
     93       0.00000           0.178706            4.86284
     94       0.00000           0.220554            6.00157
     95       0.00000           0.220555            6.00162
     96       0.00000           0.224090            6.09779
     97       0.00000           0.224090            6.09781

  What follows are estimated values for band gap, HOMO, LUMO, etc.
  | They are estimated on a discrete k-point grid and not necessarily exact.
  | For converged numbers, create a DOS and/or band structure plot on a denser k-grid.

  Highest occupied state (VBM) at     -5.63052322 eV (relative to internal zero)
  | Occupation number:      2.00000000
  | K-point:       1 at    0.000000    0.000000    0.000000 (in units of recip. lattice)

  Lowest unoccupied state (CBM) at    -4.15499544 eV (relative to internal zero)
  | Occupation number:      0.00000005
  | K-point:     255 at    0.166667    0.666667    0.000000 (in units of recip. lattice)

  ESTIMATED overall HOMO-LUMO gap:      1.47552778 eV between HOMO at k-point 1 and LUMO at k-point 255
  | This appears to be an indirect band gap.
  | Smallest direct gap :      1.86018766 eV for k_point 435 at    0.166667    0.666667    0.000000 (in units of recip. lattice)
  The gap value is above 0.2 eV. Unless you are using a very sparse k-point grid,
  this system is most likely an insulator or a semiconductor.
  Calculating total energy contributions from superposition of free atom densities.

  Total energy components:
  | Sum of eigenvalues            :       -5856.48542523 Ha     -159363.07672444 eV
  | XC energy correction          :        -351.31705493 Ha       -9559.82346303 eV
  | XC potential correction       :         456.78867005 Ha       12429.85213596 eV
  | Free-atom electrostatic energy:       -4024.16504064 Ha     -109503.10221220 eV
  | Hartree energy correction     :           0.00000000 Ha           0.00000000 eV
  | Entropy correction            :          -0.00000000 Ha          -0.00000000 eV
  | ---------------------------
  | Total energy                  :       -9775.17885074 Ha     -265996.15026371 eV
  | Total energy, T -> 0          :       -9775.17885074 Ha     -265996.15026371 eV  <-- do not rely on this value for anything but (periodic) metals
  | Electronic free energy        :       -9775.17885074 Ha     -265996.15026371 eV

  Derived energy quantities:
  | Kinetic energy                :       10036.62932512 Ha      273110.57964988 eV
  | Electrostatic energy          :      -19460.49112093 Ha     -529546.90645056 eV
  | Energy correction for multipole
  | error in Hartree potential    :           0.00000000 Ha           0.00000000 eV
  | Sum of eigenvalues per atom                           :      -26560.51278741 eV
  | Total energy (T->0) per atom                          :      -44332.69171062 eV  <-- do not rely on this value for anything but (periodic) metals
  | Electronic free energy per atom                       :      -44332.69171062 eV
  Initialize hartree_potential_storage
  Max. number of atoms included in rho_multipole:            6

  End scf initialization - timings             :  max(cpu_time)    wall_clock(cpu1)
  | Time for scf. initialization               :        3.584 s           3.581 s
  | Boundary condition initialization          :        0.176 s           0.168 s
  | Integration                                :        1.904 s           1.903 s
  | Solution of K.-S. eqns.                    :        1.160 s           1.153 s
  | Grid partitioning                          :        0.148 s           0.143 s
  | Preloading free-atom quantities on grid    :        0.016 s           0.012 s
  | Free-atom superposition energy             :        0.016 s           0.013 s
  | Total energy evaluation                    :        0.004 s           0.003 s

  Partial memory accounting:
  | Current value for overall tracked memory usage on task 0  :          39.597 MB
  | Peak value for overall tracked memory usage on task 0     :          85.887 MB after allocating wave
  | Largest tracked array allocation on task 0 so far         :          34.048 MB  when allocating hamiltonian_shell
  Note:  These values currently only include a subset of arrays which are explicitly tracked.
  The "true" memory usage will be greater.
------------------------------------------------------------

------------------------------------------------------------
          Begin self-consistency iteration #    1

  Date     :  20191117, Time     :  154950.480
------------------------------------------------------------
  Evaluating new KS density using the density matrix
  Evaluating density matrix
  Time summed over all CPUs for getting density from density matrix: real work      158.635 s, elapsed      165.950 s
  Integration grid: deviation in total charge (<rho> - N_e) =   1.770388E-10
  Pulay mixing of updated and previous charge densities.

  Evaluating partitioned Hartree potential by multipole expansion.
  | Analytical far-field extrapolation by fixed multipoles:
  | Hartree multipole sum: apparent total charge =   0.105589E-03
  Summing up the Hartree potential.
  | Estimated reciprocal-space cutoff momentum G_max:         2.41777999 bohr^-1 .
  | Reciprocal lattice points for long-range Hartree potential:     218
  Time summed over all CPUs for potential: real work       11.137 s, elapsed       11.850 s
  | RMS charge density error from multipole expansion :   0.354783E-03
  | Average real-space part of the electrostatic potential :     -0.00261322 eV

  Integrating Hamiltonian matrix: batch-based integration.
  Time summed over all CPUs for integration: real work       75.349 s, elapsed       79.274 s

  Updating Kohn-Sham eigenvalues and eigenvectors using ELSI and the ELPA eigensolver.
  Finished Cholesky decomposition
  | Time :     0.006 s
  Finished transformation to standard eigenproblem
  | Time :     0.011 s
  Starting LAPACK eigensolver
  Finished solving standard eigenproblem
  | Time :     0.026 s
  Finished back-transformation of eigenvectors
  | Time :     0.002 s

  Obtaining occupation numbers and chemical potential using ELSI.
  | Chemical potential (Fermi level):    -4.27268638eV
  Writing Kohn-Sham eigenvalues.
  K-point:       1 at    0.000000    0.000000    0.000000 (in units of recip. lattice)

  State    Occupation    Eigenvalue [Ha]    Eigenvalue [eV]
      1       2.00000        -745.380992       -20282.84879
      2       2.00000        -745.380992       -20282.84879
      3       2.00000        -103.324911        -2811.61389
      4       2.00000        -103.324911        -2811.61389
      5       2.00000         -92.345405        -2512.84633
      6       2.00000         -92.345405        -2512.84633
      7       2.00000         -92.345405        -2512.84633
      8       2.00000         -92.345405        -2512.84632
      9       2.00000         -92.345398        -2512.84612
     10       2.00000         -92.345398        -2512.84612
     11       2.00000         -88.704959        -2413.78476
     12       2.00000         -88.704959        -2413.78476
     13       2.00000         -88.704959        -2413.78476
     14       2.00000         -88.704959        -2413.78476
     15       2.00000         -17.552073         -477.61620
     16       2.00000         -17.552073         -477.61620
     17       2.00000         -13.971491         -380.18361
     18       2.00000         -13.971491         -380.18361
     19       2.00000         -13.971491         -380.18361
     20       2.00000         -13.971491         -380.18361
     21       2.00000         -13.971384         -380.18069
     22       2.00000         -13.971384         -380.18069
     23       2.00000          -8.154683         -221.90022
     24       2.00000          -8.154683         -221.90022
     25       2.00000          -8.154683         -221.90022
     26       2.00000          -8.154683         -221.90022
     27       2.00000          -8.154649         -221.89930
     28       2.00000          -8.154649         -221.89930
     29       2.00000          -8.154649         -221.89930
     30       2.00000          -8.154649         -221.89930
     31       2.00000          -8.154546         -221.89648
     32       2.00000          -8.154546         -221.89648
     33       2.00000          -7.810377         -212.53118
     34       2.00000          -7.810377         -212.53118
     35       2.00000          -7.810377         -212.53117
     36       2.00000          -7.810377         -212.53117
     37       2.00000          -5.780380         -157.29214
     38       2.00000          -5.780380         -157.29213
     39       2.00000          -5.780380         -157.29213
     40       2.00000          -5.780380         -157.29213
     41       2.00000          -5.780057         -157.28335
     42       2.00000          -5.780057         -157.28335
     43       2.00000          -5.780057         -157.28334
     44       2.00000          -5.780057         -157.28334
     45       2.00000          -5.780057         -157.28334
     46       2.00000          -5.780057         -157.28334
     47       2.00000          -5.780057         -157.28334
     48       2.00000          -5.780057         -157.28334
     49       2.00000          -2.404687          -65.43487
     50       2.00000          -2.404687          -65.43487
     51       2.00000          -1.463291          -39.81817
     52       2.00000          -1.463291          -39.81817
     53       2.00000          -1.453701          -39.55721
     54       2.00000          -1.453701          -39.55721
     55       2.00000          -1.453701          -39.55721
     56       2.00000          -1.453701          -39.55721
     57       2.00000          -0.774990          -21.08856
     58       2.00000          -0.774419          -21.07301
     59       2.00000          -0.725998          -19.75541
     60       2.00000          -0.724948          -19.72683
     61       2.00000          -0.452708          -12.31880
     62       2.00000          -0.446782          -12.15757
     63       2.00000          -0.328611           -8.94195
     64       2.00000          -0.328610           -8.94194
     65       2.00000          -0.328583           -8.94120
     66       2.00000          -0.328583           -8.94119
     67       2.00000          -0.327197           -8.90347
     68       2.00000          -0.309324           -8.41714
     69       2.00000          -0.291201           -7.92399
     70       2.00000          -0.291200           -7.92395
     71       2.00000          -0.291112           -7.92156
     72       2.00000          -0.291111           -7.92152
     73       2.00000          -0.224551           -6.11036
     74       2.00000          -0.210425           -5.72596
     75       0.00000          -0.128657           -3.50095
     76       0.00000          -0.128656           -3.50090
     77       0.00000          -0.128654           -3.50086
     78       0.00000          -0.128653           -3.50082
     79       0.00000          -0.123640           -3.36442
     80       0.00000          -0.123640           -3.36440
     81       0.00000          -0.123305           -3.35529
     82       0.00000          -0.123304           -3.35527
     83       0.00000          -0.028448           -0.77412
     84       0.00000          -0.022752           -0.61912
     85       0.00000           0.018379            0.50011
     86       0.00000           0.026061            0.70915
     87       0.00000           0.077913            2.12013
     88       0.00000           0.080477            2.18989
     89       0.00000           0.147381            4.01044
     90       0.00000           0.147382            4.01047
     91       0.00000           0.148701            4.04636
     92       0.00000           0.148702            4.04639
     93       0.00000           0.178155            4.84785
     94       0.00000           0.221333            6.02278
     95       0.00000           0.221335            6.02283
     96       0.00000           0.224818            6.11760
     97       0.00000           0.224818            6.11762

  What follows are estimated values for band gap, HOMO, LUMO, etc.
  | They are estimated on a discrete k-point grid and not necessarily exact.
  | For converged numbers, create a DOS and/or band structure plot on a denser k-grid.

  Highest occupied state (VBM) at     -5.72595976 eV (relative to internal zero)
  | Occupation number:      2.00000000
  | K-point:       1 at    0.000000    0.000000    0.000000 (in units of recip. lattice)

  Lowest unoccupied state (CBM) at    -4.23411742 eV (relative to internal zero)
  | Occupation number:      0.00000005
  | K-point:     255 at    0.166667    0.666667    0.000000 (in units of recip. lattice)

  ESTIMATED overall HOMO-LUMO gap:      1.49184234 eV between HOMO at k-point 1 and LUMO at k-point 255
  | This appears to be an indirect band gap.
  | Smallest direct gap :      1.82931690 eV for k_point 435 at    0.166667    0.666667    0.000000 (in units of recip. lattice)
  The gap value is above 0.2 eV. Unless you are using a very sparse k-point grid,
  this system is most likely an insulator or a semiconductor.

  Total energy components:
  | Sum of eigenvalues            :       -5857.36022710 Ha     -159386.88129475 eV
  | XC energy correction          :        -351.29467627 Ha       -9559.21450872 eV
  | XC potential correction       :         456.75915101 Ha       12429.04888216 eV
  | Free-atom electrostatic energy:       -4024.16504064 Ha     -109503.10221220 eV
  | Hartree energy correction     :           0.90673290 Ha          24.67345766 eV
  | Entropy correction            :          -0.00000000 Ha          -0.00000000 eV
  | ---------------------------
  | Total energy                  :       -9775.15406009 Ha     -265995.47567585 eV
  | Total energy, T -> 0          :       -9775.15406009 Ha     -265995.47567585 eV  <-- do not rely on this value for anything but (periodic) metals
  | Electronic free energy        :       -9775.15406009 Ha     -265995.47567585 eV

  Derived energy quantities:
  | Kinetic energy                :       10036.39778710 Ha      273104.27917975 eV
  | Electrostatic energy          :      -19460.25717092 Ha     -529540.54034688 eV
  | Energy correction for multipole
  | error in Hartree potential    :          -0.00011581 Ha          -0.00315124 eV
  | Sum of eigenvalues per atom                           :      -26564.48021579 eV
  | Total energy (T->0) per atom                          :      -44332.57927931 eV  <-- do not rely on this value for anything but (periodic) metals
  | Electronic free energy per atom                       :      -44332.57927931 eV

  Self-consistency convergence accuracy:
  | Change of charge density      :  0.4001E+00
  | Change of sum of eigenvalues  : -0.2380E+02 eV
  | Change of total energy        :  0.6746E+00 eV

[...]
    177       0.00000                       4.259721           4.226521             1.663186
    178       0.00000                       4.259721           4.226521             0.000000
    179       0.00000                       4.259803           4.264641             0.038120
    180       0.00000                       4.259803           4.264641             0.000000
    181       0.00000                       4.297558           4.303138             0.038497
    182       0.00000                       4.297558           4.303138             0.000000
    183       0.00000                       4.297634           4.340795             0.037656
    184       0.00000                       4.297634           4.340795             0.000000
    185       0.00000                       4.869167           4.869301             0.528506
    186       0.00000                       4.869167           4.869301             0.000000
    187       0.00000                       6.247356           6.240772             1.371472
    188       0.00000                       6.247356           6.240772             0.000000
    189       0.00000                       6.247435           6.254555             0.013783
    190       0.00000                       6.247435           6.254555             0.000000
    191       0.00000                       6.336763           6.329901             0.075346
    192       0.00000                       6.336763           6.329901             0.000000
    193       0.00000                       6.336826           6.344731             0.014830
    194       0.00000                       6.336826           6.344731             0.000000

  What follows are estimated values for band gap, HOMO, LUMO, etc.
  | They are estimated on a discrete k-point grid and not necessarily exact.
  | For converged numbers, create a DOS and/or band structure plot on a denser k-grid.

  Highest occupied state (VBM) at     -6.24764939 eV (relative to internal zero)
  | Occupation number:      1.00000000
  | K-point:       1 at    0.000000    0.000000    0.000000 (in units of recip. lattice)

  Lowest unoccupied state (CBM) at    -4.81461169 eV (relative to internal zero)
  | Occupation number:      0.00000000
  | K-point:     435 at    0.333333    0.333333    0.000000 (in units of recip. lattice)

  ESTIMATED overall HOMO-LUMO gap:      1.43303770 eV between HOMO at k-point 1 and LUMO at k-point 435
  | This appears to be an indirect band gap.
  | Smallest direct gap :      1.58112403 eV for k_point 435 at    0.333333    0.333333    0.000000 (in units of recip. lattice)
  The gap value is above 0.2 eV. Unless you are using a very sparse k-point grid,
  this system is most likely an insulator or a semiconductor.

  Spin-orbit coupling                                     :  max(cpu_time)    wall_clock(cpu1)
  | Computing matrix elements for SOC operator            :          7.232               7.304
  | Constructing second-variational Hamiltonian           :          0.424               0.436
  | Diagonalizing second-variational Hamiltonian          :          0.240               0.239
  | Syncing data and calculating occupations              :          0.144               0.140
  | Writing out data, calculating band gaps, etc.         :          0.004               0.002
  | Total SOC time                                        :          8.136               8.127

  Partial memory accounting:
  | Current value for overall tracked memory usage on task 0  :          42.292 MB
  | Peak value for overall tracked memory usage on task 0     :         132.753 MB after allocating +potential_shell
  | Largest tracked array allocation on task 0 so far         :          40.699 MB  when allocating +soc_matrix
  Note:  These values currently only include a subset of arrays which are explicitly tracked.
  The "true" memory usage will be greater.
 ------------------------------------------------------------
  Post-scf processing of Kohn-Sham eigenvalues on a denser k-point grid.
  | Using dos_kgrid_factors to write post-scf eigenvalues to a separate file.
  | Electron chemical potential:    -4.851135813387 eV.
  Integrating Hamiltonian matrix: batch-based integration.
  Time summed over all CPUs for integration: real work       76.406 s, elapsed       80.916 s
  Allocating       40.699 MB for soc_matrix
  Integrating SOC matrix: batch-based integration p2 version.
  Allocating        0.211 MB for dist_tab
  Allocating        0.211 MB for dist_tab_sq
  Allocating        0.634 MB for dir_tab
  Allocating        0.033 MB for i_basis_fns
  Allocating        0.945 MB for i_basis_fns_inv
  Allocating        0.033 MB for i_atom_fns
  Allocating        5.496 MB for gradient_basis_wave
  Allocating        0.012 MB for ylm_tab
  Allocating        0.003 MB for radial_wave
  Allocating        0.003 MB for radial_wave_deriv
  Allocating        0.037 MB for i_basis
  Allocating       34.048 MB for soc_shell
  Allocating        0.040 MB for cartesians
  Allocating        0.035 MB for sum_gradient
  Allocating        0.069 MB for sum_hessian
  Allocating        0.001 MB for potential_shell
  Processing batch of k-points:     1     1     1

  Perturbative DOS                                        :  max(cpu_time) wall_clock(cpu1)
  | Total Time                                            :         19.604          128.814
  ------------------------------------------------------------

  -------------------------------------------------------------------
  Writing the requested band structure output (LAPACK version):
  -------------------------------------------------------------------

  Integrating Hamiltonian matrix: batch-based integration.
  Time summed over all CPUs for integration: real work       75.614 s, elapsed       79.346 s
  Integrating SOC matrix: batch-based integration p2 version.
  Allocating        0.211 MB for dist_tab
  Allocating        0.211 MB for dist_tab_sq
  Allocating        0.634 MB for dir_tab
  Allocating        0.033 MB for i_basis_fns
  Allocating        0.945 MB for i_basis_fns_inv
  Allocating        0.033 MB for i_atom_fns
  Allocating        5.496 MB for gradient_basis_wave
  Allocating        0.012 MB for ylm_tab
  Allocating        0.003 MB for radial_wave
  Allocating        0.003 MB for radial_wave_deriv
  Allocating        0.037 MB for i_basis
  Allocating       34.048 MB for soc_shell
  Allocating        0.040 MB for cartesians
  Allocating        0.035 MB for sum_gradient
  Allocating        0.069 MB for sum_hessian
  Allocating        0.001 MB for potential_shell

  Treating all   31 k-points in band plot segment #   1:


  Scalar-relativistic "band gap" along reciprocal space direction number:    1
  | Lowest unoccupied state:      -4.44618351 eV
  | Highest occupied state :      -6.25111831 eV
  | Energy difference      :       1.80493481 eV


Spin-orbit-coupled "band gap" along reciprocal space direction number:    1
  | Lowest unoccupied state:      -4.44936971 eV
  | Highest occupied state :      -6.24764939 eV
  | Energy difference      :       1.79827968 eV


  Treating all   31 k-points in band plot segment #   2:


  Scalar-relativistic "band gap" along reciprocal space direction number:    2
  | Lowest unoccupied state:      -4.81009654 eV
  | Highest occupied state :      -6.46117462 eV
  | Energy difference      :       1.65107808 eV


Spin-orbit-coupled "band gap" along reciprocal space direction number:    2
  | Lowest unoccupied state:      -4.81461169 eV
  | Highest occupied state :      -6.39573572 eV
  | Energy difference      :       1.58112403 eV


  Treating all   31 k-points in band plot segment #   3:


  Scalar-relativistic "band gap" along reciprocal space direction number:    3
  | Lowest unoccupied state:      -4.81009654 eV
  | Highest occupied state :      -6.25111831 eV
  | Energy difference      :       1.44102177 eV


Spin-orbit-coupled "band gap" along reciprocal space direction number:    3
  | Lowest unoccupied state:      -4.81461169 eV
  | Highest occupied state :      -6.24764939 eV
  | Energy difference      :       1.43303770 eV


  Treating all   31 k-points in band plot segment #   4:


  Scalar-relativistic "band gap" along reciprocal space direction number:    4
  | Lowest unoccupied state:      -3.71754754 eV
  | Highest occupied state :      -6.25111831 eV
  | Energy difference      :       2.53357078 eV


Spin-orbit-coupled "band gap" along reciprocal space direction number:    4
  | Lowest unoccupied state:      -3.75971381 eV
  | Highest occupied state :      -6.24764939 eV
  | Energy difference      :       2.48793558 eV


  Treating all   31 k-points in band plot segment #   5:


  Scalar-relativistic "band gap" along reciprocal space direction number:    5
  | Lowest unoccupied state:      -4.30327576 eV
  | Highest occupied state :      -6.41083895 eV
  | Energy difference      :       2.10756319 eV


Spin-orbit-coupled "band gap" along reciprocal space direction number:    5
  | Lowest unoccupied state:      -4.30868623 eV
  | Highest occupied state :      -6.40714120 eV
  | Energy difference      :       2.09845497 eV


  Treating all   31 k-points in band plot segment #   6:


  Scalar-relativistic "band gap" along reciprocal space direction number:    6
  | Lowest unoccupied state:      -4.81005843 eV
  | Highest occupied state :      -6.47084954 eV
  | Energy difference      :       1.66079111 eV


Spin-orbit-coupled "band gap" along reciprocal space direction number:    6
  | Lowest unoccupied state:      -4.81458096 eV
  | Highest occupied state :      -6.39650003 eV
  | Energy difference      :       1.58191907 eV


  Treating all   31 k-points in band plot segment #   7:


  Scalar-relativistic "band gap" along reciprocal space direction number:    7
  | Lowest unoccupied state:      -4.81005843 eV
  | Highest occupied state :      -6.41083895 eV
  | Energy difference      :       1.60078052 eV


Spin-orbit-coupled "band gap" along reciprocal space direction number:    7
  | Lowest unoccupied state:      -4.81458096 eV
  | Highest occupied state :      -6.39650003 eV
  | Energy difference      :       1.58191907 eV


  Treating all   31 k-points in band plot segment #   8:


  Scalar-relativistic "band gap" along reciprocal space direction number:    8
  | Lowest unoccupied state:      -4.30327576 eV
  | Highest occupied state :      -6.41083895 eV
  | Energy difference      :       2.10756319 eV


Spin-orbit-coupled "band gap" along reciprocal space direction number:    8
  | Lowest unoccupied state:      -4.30868623 eV
  | Highest occupied state :      -6.40714120 eV
  | Energy difference      :       2.09845497 eV


  Treating all   31 k-points in band plot segment #   9:


  Scalar-relativistic "band gap" along reciprocal space direction number:    9
  | Lowest unoccupied state:      -4.23968213 eV
  | Highest occupied state :      -7.07691262 eV
  | Energy difference      :       2.83723049 eV


Spin-orbit-coupled "band gap" along reciprocal space direction number:    9
  | Lowest unoccupied state:      -4.24693932 eV
  | Highest occupied state :      -7.06655089 eV
  | Energy difference      :       2.81961156 eV


  Treating all   31 k-points in band plot segment #  10:


  Scalar-relativistic "band gap" along reciprocal space direction number:   10
  | Lowest unoccupied state:      -4.81009654 eV
  | Highest occupied state :      -6.46117462 eV
  | Energy difference      :       1.65107808 eV


Spin-orbit-coupled "band gap" along reciprocal space direction number:   10
  | Lowest unoccupied state:      -4.81461169 eV
  | Highest occupied state :      -6.39573572 eV
  | Energy difference      :       1.58112403 eV


  Treating all   31 k-points in band plot segment #  11:


  Scalar-relativistic "band gap" along reciprocal space direction number:   11
  | Lowest unoccupied state:      -4.81009654 eV
  | Highest occupied state :      -6.46117462 eV
  | Energy difference      :       1.65107808 eV


Spin-orbit-coupled "band gap" along reciprocal space direction number:   11
  | Lowest unoccupied state:      -4.81461169 eV
  | Highest occupied state :      -6.39573572 eV
  | Energy difference      :       1.58112403 eV

  Scalar-relativistic "band gap" of total set of bands:
  | Lowest unoccupied state:      -4.81009654 eV
  | Highest occupied state :      -6.25111831 eV
  | Energy difference      :       1.44102177 eV

  Spin-orbit-coupled "band gap" of total set of bands:
  | Lowest unoccupied state:      -4.81461169 eV
  | Highest occupied state :      -6.24764939 eV
  | Energy difference      :       1.43303770 eV


  Band Structure                                          :  max(cpu_time) wall_clock(cpu1)
  | Total Time                                            :         11.076           11.159
------------------------------------------------------------

------------------------------------------------------------------------------
  Final output of selected total energy values:

  The following output summarizes some interesting total energy values
  at the end of a run (AFTER all relaxation, molecular dynamics, etc.).

  | Total energy of the DFT / Hartree-Fock s.c.f. calculation      :        -265993.119078518 eV
  | Final zero-broadening corrected energy (caution - metals only) :        -265993.119078518 eV
  | Total energy after non-SC SOC correction (DO NOT USE)          :        -265993.220518072 eV
  | For reference only, the value of 1 Hartree used in FHI-aims is :             27.211384500 eV

  Before relying on these values, please be sure to understand exactly which
  total energy value is referred to by a given number. Different objects may
  all carry the same name 'total energy'. Definitions:

  Total energy of the DFT / Hartree-Fock s.c.f. calculation:
  | Note that this energy does not include ANY quantities calculated after the
  | s.c.f. cycle, in particular not ANY RPA, MP2, etc. many-body perturbation terms.

  Final zero-broadening corrected energy:
  | For metallic systems only, a broadening of the occupation numbers at the Fermi
  | level can be extrapolated back to zero broadening by an electron-gas inspired
  | formula. For all systems that are not real metals, this value can be
  | meaningless and should be avoided.

------------------------------------------------------------------------------
  Methods described in the following list of references were used in this FHI-aims run.
  If you publish the results, please make sure to cite these reference if they apply.
  FHI-aims is an academic code, and for our developers (often, Ph.D. students
  and postdocs), scientific credit in the community is essential.
  Thank you for helping us!

  For any use of FHI-aims, please cite:

    Volker Blum, Ralf Gehrke, Felix Hanke, Paula Havu, Ville Havu,
    Xinguo Ren, Karsten Reuter, and Matthias Scheffler
    'Ab initio molecular simulations with numeric atom-centered orbitals'
    Computer Physics Communications 180, 2175-2196 (2009)
    http://dx.doi.org/10.1016/j.cpc.2009.06.022


  For second-variational spin-orbit coupling used in your run, please cite:

    William P. Huhn and Volker Blum,
    'One-hundred-three compound band-structure benchmark of post-self-consistent'
    'spin-orbit coupling treatments in density functional theory'
    Phys. Rev. Materials 1, 033803 (2017).


  The scalable eigensolver library ELPA was used in your run.
  ELPA is essential especially for large systems on hundreds or thousands of CPUs.
  For ELPA, please cite:

    Andreas Marek, Volker Blum, Rainer Johanni, Ville Havu, Bruno Lang,
    Thomas Auckenthaler, Alexander Heinecke, Hans-Joachim Bungartz, and Hermann Lederer,
    'The ELPA Library - Scalable Parallel Eigenvalue Solutions
    for Electronic Structure Theory and Computational Science'
    The Journal of Physics: Condensed Matter 26, 213201 (2014).
    http://dx.doi.org/10.1088/0953-8984/26/21/213201


  The ELSI infrastructure was used in your run to solve the Kohn-Sham electronic structure.
  Please check out http://elsi-interchange.org to learn more.
  If scalability is important for your project, please acknowledge ELSI by citing:

    V. W-z. Yu, F. Corsetti, A. Garcia, W. P. Huhn, M. Jacquelin, W. Jia,
    B. Lange, L. Lin, J. Lu, W. Mi, A. Seifitokaldani, A. Vazquez-Mayagoitia,
    C. Yang, H. Yang, and V. Blum
    'ELSI: A unified software interface for Kohn-Sham electronic structure solvers'
    Computer Physics Communications 222, 267-285 (2018).
    http://dx.doi.org/10.1016/j.cpc.2017.09.007


  For the real-space grid partitioning and parallelization used in this calculation, please cite:

    Ville Havu, Volker Blum, Paula Havu, and Matthias Scheffler,
    'Efficient O(N) integration for all-electron electronic structure calculation'
    'using numerically tabulated basis functions'
    Journal of Computational Physics 228, 8367-8379 (2009).
    http://dx.doi.org/10.1016/j.jcp.2009.08.008

  Of course, there are many other important community references, e.g., those cited in the
  above references. Our list is limited to references that describe implementations in the
  FHI-aims code. The reason is purely practical (length of this list) - please credit others as well.

------------------------------------------------------------
          Leaving FHI-aims.
          Date     :  20191117, Time     :  155335.759

          Computational steps:
          | Number of self-consistency cycles          :           17
          | Number of SCF (re)initializations          :            1

          Detailed time accounting                     :  max(cpu_time)    wall_clock(cpu1)
          | Total time                                 :      125.132 s         229.367 s
          | Preparation time                           :        0.436 s           0.430 s
          | Boundary condition initalization           :        0.176 s           0.168 s
          | Grid partitioning                          :        0.148 s           0.143 s
          | Preloading free-atom quantities on grid    :        0.016 s           0.012 s
          | Free-atom superposition energy             :        0.016 s           0.013 s
          | Total time for integrations                :       19.456 s          19.396 s
          | Total time for solution of K.-S. equations :       16.856 s          16.849 s
          | Total time for density update              :       38.956 s          38.891 s
          | Total time for mixing & preconditioning    :        1.520 s           1.498 s
          | Total time for Hartree multipole update    :        0.076 s           0.041 s
          | Total time for Hartree multipole sum       :        3.156 s           3.098 s
          | Total time for total energy evaluation     :        0.072 s           0.054 s
          | Total time for scaled ZORA corrections     :        0.000 s           0.000 s
          | Total time for perturbative SOC            :        8.136 s           8.127 s
          | Total time for band structures, DOS        :       31.788 s         139.973 s

          Partial memory accounting:
          | Residual value for overall tracked memory usage across tasks :           0.000 MB (should be 0.000 MB)
          | Peak values for overall tracked memory usage (after allocating +potential_shell):
          |   Minimum:      123.147 MB (on task  2)
          |   Maximum:      133.321 MB (on task 67)
          |   Average:      126.272 MB
          | Largest tracked array allocation (+soc_matrix):
          |   Minimum:       40.699 MB (on task  1)
          |   Maximum:       40.699 MB (on task  1)
          |   Average:       40.699 MB
          Note:  These values currently only include a subset of arrays which are explicitly tracked.
          The "true" memory usage will be greater.

          Have a nice day.
------------------------------------------------------------
