------------------------------------------------------------
          Invoking FHI-aims ...

          When using FHI-aims, please cite the following reference:

          Volker Blum, Ralf Gehrke, Felix Hanke, Paula Havu,
          Ville Havu, Xinguo Ren, Karsten Reuter, and Matthias Scheffler,
          'Ab Initio Molecular Simulations with Numeric Atom-Centered Orbitals',
          Computer Physics Communications 180, 2175-2196 (2009)

          For any questions about FHI-aims, please visit the aimsclub website
          with its forums and wiki. Contributions to both the forums and the
          wiki are warmly encouraged - they are for you, and everyone is welcome there.

------------------------------------------------------------



  Date     :  20200320, Time     :  115817.601
  Time zero on CPU 1             :   0.135859000000000E+00  s.
  Internal wall clock time zero  :           353937497.601  s.

  FHI-aims created a unique identifier for this run for later identification
  aims_uuid : DB1260FC-E2CE-4B16-AD3A-2D791B0286C4

  Build configuration of the current instance of FHI-aims
  -------------------------------------------------------
  FHI-aims version      : 200112
  Commit number         : 23daeca3f
  CMake host system     : Linux-3.10.0-693.21.1.el7.x86_64
  CMake version         : 3.13.3
  Fortran compiler      : /sw/installed/impi/2018.4.274-iccifort-2019.1.144-GCC-8.2.0-2.31.1/bin64/mpiifort (Intel) version 19.0.0.20181018
  Fortran compiler flags: -O3 -ip -fp-model precise
  C compiler            : /sw/installed/impi/2018.4.274-iccifort-2019.1.144-GCC-8.2.0-2.31.1/bin64/mpiicc (Intel) version 19.0.0.20181018
  C compiler flags      : -O3 -ip -fp-model precise
  Architecture          :
  Using MPI
  Using Scalapack
  Using C files
  Using LibXC
  Using SPGlib
  Using i-PI
  Using RLSY
  Linking against: /sw/installed/imkl/2019.1.144-iimpi-2019a/mkl/lib/intel64/libmkl_intel_lp64.so
                   /sw/installed/imkl/2019.1.144-iimpi-2019a/mkl/lib/intel64/libmkl_sequential.so
                   /sw/installed/imkl/2019.1.144-iimpi-2019a/mkl/lib/intel64/libmkl_core.so
                   /sw/installed/imkl/2019.1.144-iimpi-2019a/mkl/lib/intel64/libmkl_blacs_intelmpi_lp64.so
                   /sw/installed/imkl/2019.1.144-iimpi-2019a/mkl/lib/intel64/libmkl_scalapack_lp64.so

  Using       24 parallel tasks.
  Task        0 on host taurusi5547.taurus.hrsk.tu-dresden.de reporting.
  Task        1 on host taurusi5547.taurus.hrsk.tu-dresden.de reporting.
  Task        2 on host taurusi5547.taurus.hrsk.tu-dresden.de reporting.
  Task        3 on host taurusi5547.taurus.hrsk.tu-dresden.de reporting.
  Task        4 on host taurusi5547.taurus.hrsk.tu-dresden.de reporting.
  Task        5 on host taurusi5547.taurus.hrsk.tu-dresden.de reporting.
  Task        6 on host taurusi5547.taurus.hrsk.tu-dresden.de reporting.
  Task        7 on host taurusi5547.taurus.hrsk.tu-dresden.de reporting.
  Task        8 on host taurusi5547.taurus.hrsk.tu-dresden.de reporting.
  Task        9 on host taurusi5547.taurus.hrsk.tu-dresden.de reporting.
  Task       10 on host taurusi5547.taurus.hrsk.tu-dresden.de reporting.
  Task       11 on host taurusi5547.taurus.hrsk.tu-dresden.de reporting.
  Task       12 on host taurusi5547.taurus.hrsk.tu-dresden.de reporting.
  Task       13 on host taurusi5547.taurus.hrsk.tu-dresden.de reporting.
  Task       14 on host taurusi5547.taurus.hrsk.tu-dresden.de reporting.
  Task       15 on host taurusi5547.taurus.hrsk.tu-dresden.de reporting.
  Task       16 on host taurusi5547.taurus.hrsk.tu-dresden.de reporting.
  Task       17 on host taurusi5547.taurus.hrsk.tu-dresden.de reporting.
  Task       18 on host taurusi5547.taurus.hrsk.tu-dresden.de reporting.
  Task       19 on host taurusi5547.taurus.hrsk.tu-dresden.de reporting.
  Task       20 on host taurusi5547.taurus.hrsk.tu-dresden.de reporting.
  Task       21 on host taurusi5547.taurus.hrsk.tu-dresden.de reporting.
  Task       22 on host taurusi5547.taurus.hrsk.tu-dresden.de reporting.
  Task       23 on host taurusi5547.taurus.hrsk.tu-dresden.de reporting.

  Performing system and environment tests:
  | Environment variable OMP_NUM_THREADS correctly set to 1.
  | Maximum stacksize for task 0: unlimited
  | Maximum stacksize for task 1: unlimited
  | Maximum stacksize for task 2: unlimited
  | Maximum stacksize for task 3: unlimited
  | Maximum stacksize for task 4: unlimited
  | Maximum stacksize for task 5: unlimited
  | Maximum stacksize for task 6: unlimited
  | Maximum stacksize for task 7: unlimited
  | Maximum stacksize for task 8: unlimited
  | Maximum stacksize for task 9: unlimited
  | Maximum stacksize for task 10: unlimited
  | Maximum stacksize for task 11: unlimited
  | Maximum stacksize for task 12: unlimited
  | Maximum stacksize for task 13: unlimited
  | Maximum stacksize for task 14: unlimited
  | Maximum stacksize for task 15: unlimited
  | Maximum stacksize for task 16: unlimited
  | Maximum stacksize for task 17: unlimited
  | Maximum stacksize for task 18: unlimited
  | Maximum stacksize for task 19: unlimited
  | Maximum stacksize for task 20: unlimited
  | Maximum stacksize for task 21: unlimited
  | Maximum stacksize for task 22: unlimited
  | Maximum stacksize for task 23: unlimited
  | Current stacksize for task 0: unlimited
  | Current stacksize for task 1: unlimited
  | Current stacksize for task 2: unlimited
  | Current stacksize for task 3: unlimited
  | Current stacksize for task 4: unlimited
  | Current stacksize for task 5: unlimited
  | Current stacksize for task 6: unlimited
  | Current stacksize for task 7: unlimited
  | Current stacksize for task 8: unlimited
  | Current stacksize for task 9: unlimited
  | Current stacksize for task 10: unlimited
  | Current stacksize for task 11: unlimited
  | Current stacksize for task 12: unlimited
  | Current stacksize for task 13: unlimited
  | Current stacksize for task 14: unlimited
  | Current stacksize for task 15: unlimited
  | Current stacksize for task 16: unlimited
  | Current stacksize for task 17: unlimited
  | Current stacksize for task 18: unlimited
  | Current stacksize for task 19: unlimited
  | Current stacksize for task 20: unlimited
  | Current stacksize for task 21: unlimited
  | Current stacksize for task 22: unlimited
  | Current stacksize for task 23: unlimited
  | Checking for scalapack...
  | Testing pdtran()...
  | All pdtran() tests passed.

  Obtaining array dimensions for all initial allocations:
  
  -----------------------------------------------------------------------
  Parsing control.in (first pass over file, find array dimensions only).
  The contents of control.in will be repeated verbatim below
  unless switched off by setting 'verbatim_writeout .false.' .
  in the first line of control.in .
  -----------------------------------------------------------------------
  
  #===============================================================================
  # FHI-aims file: ./control.in
  # Created using the Atomic Simulation Environment (ASE)
  # Thu Mar 19 17:13:26 2020
  #===============================================================================
  xc                                 pbe
  # include_spin_orbit
  # vdw_correction_hirshfeld
  # many_body_dispersion_nl 	 beta=0.81
  spin                               none
  k_grid 	 	 27 27 27
  relativistic                       atomic_zora scalar
  ### SCF settings
  adjust_scf 	 always 	 3
  # frozen_core_scf 	 .true.
  # charge_mix_param  0.05
  # occupation_type 	 gaussian 	 0.01
  # sc_accuracy_eev   1E-3 	 	 # sum of eigenvalues convergence
  # sc_accuracy_etot  1E-6 	 	 # total energy convergence
  # sc_accuracy_rho   1E-3 	 	 # electron density convergence
  # elsi_restart 	 read_and_write 	 1000
  #===============================================================================
  
  ################################################################################
  #
  #  FHI-aims code project
  # Volker Blum, Fritz Haber Institute Berlin, 2009
  #
  #  Suggested "tight" defaults for S atom (to be pasted into control.in file)
  #
  #  Revised Jan 04, 2011, following tests (SiC) done by Lydia Nemec:
  #     d and g functions of tier 2 now enabled by default.
  #
  ################################################################################
    species        S
  #     global species definitions
      nucleus             16
      mass                32.065
  #
      l_hartree           6
  #
      cut_pot             4.0          2.0  1.0
      basis_dep_cutoff    1e-4
  #
      radial_base         44 7.0
      radial_multiplier   2
      angular_grids       specified
        division   0.4665  110
        division   0.5810  194
        division   0.7139  302
        division   0.8274  434
  #      division   0.9105  590
  #      division   1.0975  770
  #      division   1.2028  974
  #      outer_grid  974
        outer_grid  434
  ################################################################################
  #
  #  Definition of "minimal" basis
  #
  ################################################################################
  #     valence basis states
      valence      3  s   2.
      valence      3  p   4.
  #     ion occupancy
      ion_occ      3  s   1.
      ion_occ      3  p   3.
  ################################################################################
  #
  #  Suggested additional basis functions. For production calculations,
  #  uncomment them one after another (the most important basis functions are
  #  listed first).
  #
  #  Constructed for dimers: 1.6 A, 1.9 A, 2.5 A, 3.25 A, 4.0 A
  #
  ################################################################################
  #  "First tier" - improvements: -652.81 meV to -45.53 meV
       ionic 3 d auto
       hydro 2 p 1.8
       hydro 4 f 7
       ionic 3 s auto
  #  "Second tier" - improvements: -30.20 meV to -1.74 meV
  #     hydro 4 d 6.2
  #     hydro 5 g 10.8
  #     hydro 4 p 4.9
  #     hydro 5 f 10
  #     hydro 1 s 0.8
  #  "Third tier" - improvements: -1.04 meV to -0.20 meV
  #     hydro 3 d 3.9
  #     hydro 3 d 2.7
  #     hydro 5 g 12
  #     hydro 4 p 10.4
  #     hydro 5 f 12.4
  #     hydro 2 s 1.9
  #  "Fourth tier" - improvements: -0.35 meV to -0.06 meV
  #     hydro 4 d 10.4
  #     hydro 4 p 7.2
  #     hydro 4 d 10
  #     hydro 5 g 19.2
  #     hydro 4 s 12
  #
  ################################################################################
  #
  # For methods that use the localized form of the "resolution of identity" for
  # the two-electron Coulomb operator (RI_method LVL), particularly Hartree-Fock and
  # hybrid density functional calculations, the highest accuracy can be obtained by
  # uncommenting the line beginning with "for_aux"  below, thus adding an extra g radial
  # function to the construction of the product basis set for the expansion.
  # See Ref. New J. Phys. 17, 093020 (2015) for more information, particularly Figs. 1 and 6.
  #
  ################################################################################
  #
  # for_aux hydro 5 g 6.0
  ################################################################################
  #
  #  FHI-aims code project
  # Volker Blum, Fritz Haber Institute Berlin, 2010
  #
  #  Suggested "tight" defaults for Ni atom (to be pasted into control.in file)
  #
  #  Revised June 14, 2011.
  #     p and d functions of tier 2 now enabled by default, as the atom may change
  #     its occupation. Similar to Co.
  #
  ################################################################################
    species        Ni
  #     global species definitions
      nucleus             28
      mass                58.6934
  #
      l_hartree           6
  #
      cut_pot             4.0          2.0  1.0
      basis_dep_cutoff    1e-4
  #
      radial_base         52 7.0
      radial_multiplier   2
      angular_grids       specified
        division   0.2935   50
        division   0.6132  110
        division   0.9287  194
        division   1.1299  302
        division   1.3700  434
  #      division   1.5675  590
  #      division   1.7612  770
  #      division   1.9438  974
  #      division   2.5441 1202
        outer_grid  434
  ################################################################################
  #
  #  Definition of "minimal" basis
  #
  ################################################################################
  #     valence basis states
      valence      4  s   2.
      valence      3  p   6.
      valence      3  d   8.
  #     ion occupancy
      ion_occ      4  s   1.
      ion_occ      3  p   6.
      ion_occ      3  d   7.
  ################################################################################
  #
  #  Suggested additional basis functions. For production calculations,
  #  uncomment them one after another (the most important basis functions are
  #  listed first).
  #
  #  Constructed for dimers: 1.65 A, 2.00 A, 2.50 A, 3.00 A, 4.00 A
  #
  ################################################################################
  #  "First tier" - improvements: -123.08 meV to -11.61 meV
       hydro 3 p 6
       hydro 4 f 9
       hydro 5 g 12.4
       hydro 3 d 5.2
       ionic 4 s auto
  #  "Second tier" - improvements: -6.71 meV to -1.07 meV
  #     ionic 4 p auto
  #     hydro 4 d 6
  #     hydro 6 h 18
  #     hydro 4 f 9.4
  #     hydro 4 f 16.4
  #     hydro 1 s 0.75
  #  "Third tier" - improvements: -0.57 meV to -0.07 meV
  #     hydro 4 p 18.4
  #     hydro 4 d 8
  #     hydro 5 g 13.2
  #     hydro 5 f 8.4
  #     hydro 6 h 16.8
  #     hydro 4 s 4.4
  #  Further functions: improvements -0.07 meV and below
  #     hydro 5 f 16.8
  #     hydro 4 p 10
  #
  
  -----------------------------------------------------------------------
  Completed first pass over input file control.in .
  -----------------------------------------------------------------------
  
  
  -----------------------------------------------------------------------
  Parsing geometry.in (first pass over file, find array dimensions only).
  The contents of geometry.in will be repeated verbatim below
  unless switched off by setting 'verbatim_writeout .false.' .
  in the first line of geometry.in .
  -----------------------------------------------------------------------
  
  #=======================================================
  # FHI-aims file: ./geometry.in
  # Created using the Atomic Simulation Environment (ASE)
  # Thu Mar 19 17:13:26 2020
  #=======================================================
  lattice_vector 2.8655000099999999 1.6543972000000000 2.3730000000000002
  lattice_vector -2.8655000099999999 1.6543972000000000 2.3730000000000002
  lattice_vector 0.0000000000000000 -3.3087944000000000 2.3730000000000002
  atom_frac 0.7479000000000001 0.7479000000000000 0.7478999999999999 S
  atom_frac 0.2520999999999999 0.2520999999999999 0.2520999999999999 S
  atom_frac 0.4999999992687707 0.2449000001590167 0.7551000005722124 Ni
  atom_frac 0.2448999991453499 0.7551000008546502 0.4999999999999999 Ni
  atom_frac 0.7550999998409831 0.5000000007312292 0.2448999994277875 Ni
  
  -----------------------------------------------------------------------
  Completed first pass over input file geometry.in .
  -----------------------------------------------------------------------
  

  Basic array size parameters:
  | Number of species                 :        2
  | Number of atoms                   :        5
  | Number of lattice vectors         :        3
  | Max. basis fn. angular momentum   :        4
  | Max. atomic/ionic basis occupied n:        4
  | Max. number of basis fn. types    :        3
  | Max. radial fns per species/type  :        7
  | Max. logarithmic grid size        :     1403
  | Max. radial integration grid size :      105
  | Max. angular integration grid size:      434
  | Max. angular grid division number :        8
  | Radial grid for Hartree potential :     1403
  | Number of spin channels           :        1

------------------------------------------------------------
          Reading file control.in.
------------------------------------------------------------
  XC: Using PBE gradient-corrected functionals.
  Spin treatment: No spin polarisation.
  Found k-point grid:        27        27        27
  Scalar relativistic treatment of kinetic energy: on-site free-atom approximation to ZORA.
  S.C.F. convergence parameters will be adjusted in iteration number     3 of each new s.c.f. cycle.
 
  Reading configuration options for species S                   .
  | Found nuclear charge :  16.0000
  | Found atomic mass :    32.0650000000000      amu
  | Found l_max for Hartree potential  :   6
  | Found cutoff potl. onset [A], width [A], scale factor :    4.00000    2.00000    1.00000
  | Threshold for basis-dependent cutoff potential is   0.100000E-03
  | Found data for basic radial integration grid :    44 points, outermost radius =    7.000 A
  | Found multiplier for basic radial grid :   2
  | Found angular grid specification: user-specified.
  | Specified grid contains     5 separate shells.
  | Check grid settings after all constraints further below.
  | Found free-atom valence shell :  3 s   2.000
  | Found free-atom valence shell :  3 p   4.000
  | Found free-ion valence shell :  3 s   1.000
  | Found free-ion valence shell :  3 p   3.000
  | Found ionic basis function :  3 d , default cutoff radius.
  | Found hydrogenic basis function :  2 p   1.800
  | Found hydrogenic basis function :  4 f   7.000
  | Found ionic basis function :  3 s , default cutoff radius.
  Species S                   : Missing cutoff potential type.
  Defaulting to exp(1/x)/(1-x)^2 type cutoff potential.
  Species S : No 'logarithmic' tag. Using default grid for free atom:
  | Default logarithmic grid data [bohr] : 0.1000E-03 0.1000E+03 0.1012E+01
  | Will include ionic basis functions of  2.0-fold positive S                    ion.
  Species S : On-site basis accuracy parameter (for Gram-Schmidt orthonormalisation) not specified.
  Using default value basis_acc =  0.1000000E-03.
  Species S                   : Using default innermost maximum threshold i_radial=  2 for radial functions.
  Species S                   : Default cutoff onset for free atom density etc. : 0.40000000E+01 AA.
  Species S                   : Basic radial grid will be enhanced according to radial_multiplier =   2, to contain    89 grid points.
 
  Reading configuration options for species Ni                  .
  | Found nuclear charge :  28.0000
  | Found atomic mass :    58.6934000000000      amu
  | Found l_max for Hartree potential  :   6
  | Found cutoff potl. onset [A], width [A], scale factor :    4.00000    2.00000    1.00000
  | Threshold for basis-dependent cutoff potential is   0.100000E-03
  | Found data for basic radial integration grid :    52 points, outermost radius =    7.000 A
  | Found multiplier for basic radial grid :   2
  | Found angular grid specification: user-specified.
  | Specified grid contains     6 separate shells.
  | Check grid settings after all constraints further below.
  | Found free-atom valence shell :  4 s   2.000
  | Found free-atom valence shell :  3 p   6.000
  | Found free-atom valence shell :  3 d   8.000
  | Found free-ion valence shell :  4 s   1.000
  | Found free-ion valence shell :  3 p   6.000
  | Found free-ion valence shell :  3 d   7.000
  | Found hydrogenic basis function :  3 p   6.000
  | Found hydrogenic basis function :  4 f   9.000
  | Found hydrogenic basis function :  5 g  12.400
  | Found hydrogenic basis function :  3 d   5.200
  | Found ionic basis function :  4 s , default cutoff radius.
  Species Ni                  : Missing cutoff potential type.
  Defaulting to exp(1/x)/(1-x)^2 type cutoff potential.
  Species Ni: No 'logarithmic' tag. Using default grid for free atom:
  | Default logarithmic grid data [bohr] : 0.1000E-03 0.1000E+03 0.1012E+01
  | Will include ionic basis functions of  2.0-fold positive Ni                   ion.
  Species Ni: On-site basis accuracy parameter (for Gram-Schmidt orthonormalisation) not specified.
  Using default value basis_acc =  0.1000000E-03.
  Species Ni                  : Using default innermost maximum threshold i_radial=  2 for radial functions.
  Species Ni                  : Default cutoff onset for free atom density etc. : 0.40000000E+01 AA.
  Species Ni                  : Basic radial grid will be enhanced according to radial_multiplier =   2, to contain   105 grid points.
 
  Finished reading input file 'control.in'. Consistency checks are next.
 
  MPI_IN_PLACE appears to work with this MPI implementation.
  | Keeping use_mpi_in_place .true. (see manual).
  Target number of points in a grid batch is not set. Defaulting to  100
  Method for grid partitioning is not set. Defaulting to parallel hash+maxmin partitioning.
  Batch size limit is not set. Defaulting to    200
  By default, will store active basis functions for each batch.
  If in need of memory, prune_basis_once .false. can be used to disable this option.
  communication_type for Hartree potential was not specified.
  Defaulting to calc_hartree .
  Defaulting to Pulay charge density mixer.
  Pulay mixer: Number of relevant iterations not set.
  Defaulting to    8 iterations.
  Pulay mixer: Number of initial linear mixing iterations not set.
  Defaulting to    0 iterations.
  Work space size for distributed Hartree potential not set.
  Defaulting to   0.200000E+03 MB.
  Mixing parameter for charge density mixing has not been set.
  Using default: charge_mix_param =     0.0500.
  The mixing parameter will be adjusted in iteration number     3 of each s.c.f. cycle (i.e., each geometry step).
  Algorithm-dependent basis array size parameters:
  | n_max_pulay                         :        8
  Maximum number of self-consistency iterations not provided.
  Presetting  1000 iterations.
  Presetting      1001 iterations before the initial mixing cycle
  is restarted anyway using the sc_init_iter criterion / keyword.
  Presetting a factor      1.000 between actual scf density residual
  and density convergence criterion sc_accuracy_rho below which sc_init_iter
  takes no effect.
 * No s.c.f. convergence criteria (sc_accuracy_*) were provided in control.in.
 * The run will proceed with a reasonable default guess, but please check whether.
 * the s.c.f. cycles seem to take too much or too little time.
  Calculation of forces was not defined in control.in. No forces will be calculated.
  Geometry relaxation not requested: no relaxation will be performed.
 * Notice: The s.c.f. convergence criterion sc_accuracy_rho was not provided.
 * We used to stop in this case, and ask the user to provide reasonable
 * scf convergence criteria. However, this led some users to employ criteria
 * that led to extremely long run times, e.g., for simple relaxation.
 * We now preset a default value for sc_accuracy_rho if it is not set.
 * You may still wish to check if this setting is too tight or too loose for your needs.
 * Based on n_atoms, FHI-aims chose sc_accuracy_rho =  0.100000E-05 .
  No accuracy limit for integral partition fn. given. Defaulting to  0.1000E-14.
  No threshold value for u(r) in integrations given. Defaulting to  0.1000E-05.
  No occupation type (smearing scheme) given. Defaulting to Gaussian broadening, width =  0.1000E-01 eV.
  The width will be adjusted in iteration number     3 of each s.c.f. cycle (i.e., each geometry step).
  S.C.F. convergence parameters will be adjusted in iteration number     3 of the first full s.c.f. cycle only.
  No accuracy for occupation numbers given. Defaulting to  0.1000E-12.
  No threshold value for occupation numbers given. Defaulting to  0.0000E+00.
  No accuracy for fermi level given. Defaulting to  0.1000E-19.
  Maximum # of iterations to find E_F not set. Defaulting to  200.
  Preferred method for the eigenvalue solver ('KS_method') not specified in 'control.in'.
  Defaulting to serial version, LAPACK (via ELSI), since more k-points than CPUs available.
  Will not use alltoall communication since running on < 1024 CPUs.
  Threshold for basis singularities not set.
  Default threshold for basis singularities:  0.1000E-04
  partition_type (choice of integration weights) for integrals was not specified.
  | Using a version of the partition function of Stratmann and coworkers ('stratmann_sparse').
  | At each grid point, the set of atoms used to build the partition table is smoothly restricted to
  | only those atoms whose free-atom density would be non-zero at that grid point.
  Partitioning for Hartree potential was not defined. Using partition_type for integrals.
  | Adjusted default value of keyword multip_moments_threshold to:       0.10000000E-11
  | This value may affect high angular momentum components of the Hartree potential in periodic systems.
  Angular momentum expansion for Kerker preconditioner not set explicitly.
  | Using default value of   0
  No explicit requirement for turning off preconditioner.
  | By default, it will be turned off when the charge convergence reaches
  | sc_accuracy_rho  =   0.100000E-05
  No special mixing parameter while Kerker preconditioner is on.
  Using default: charge_mix_param =     0.0500.
  No q(lm)/r^(l+1) cutoff set for long-range Hartree potential.
  | Using default value of  0.100000E-09 .
  | Verify using the multipole_threshold keyword.
  Defaulting to new monopole extrapolation.
  Density update method: automatic selection selected.
  Using density matrix based charge density update.
  Using density matrix based charge density update.
  Using packed matrix style: index .
  Defaulting to use time-reversal symmetry for k-point grid.
  Charge integration errors on the 3D integration grid will be compensated
  by explicit normalization and distribution of residual charges.
  Use the "compensate_multipole_errors" flag to change this behaviour.
------------------------------------------------------------


------------------------------------------------------------
          Reading geometry description geometry.in.
------------------------------------------------------------
  Input structure read successfully.
  The structure contains        5 atoms,  and a total of        116.000 electrons.

  Input geometry:
  | Unit cell:
  |        2.86550001        1.65439720        2.37300000
  |       -2.86550001        1.65439720        2.37300000
  |        0.00000000       -3.30879440        2.37300000
  | Atomic structure:
  |       Atom                x [A]            y [A]            z [A]
  |    1: Species S             0.00000000        0.00000000        5.32430010
  |    2: Species S             0.00000000        0.00000000        1.79469990
  |    3: Species Ni            0.73098905       -1.26611018        3.55950000
  |    4: Species Ni           -1.46197811        0.00000000        3.55950000
  |    5: Species Ni            0.73098905        1.26611018        3.55950000

  Lattice parameters for 3D lattice (in Angstroms) :     4.071762    4.071762    4.071762
  Angle(s) between unit vectors (in degrees)       :    89.457182   89.457182   89.457182

  | The smallest distance between any two atoms is         2.25317796 AA.
  | The first atom of this pair is atom number                      2 .
  | The second atom of this pair is atom number                     3 .
  | Wigner-Seitz cell of the first atom image           0     0     0 .
  | (The Wigner-Seitz cell of the second atom is 0 0 0  by definition.)

  Symmetry information by spglib:
  | Precision set to  0.1E-04
  | Number of Operations  : 6
  | Space group           : 155
  | International         : R32
  | Schoenflies           : D3^7

  Quantities derived from the lattice vectors:
  | Reciprocal lattice vector 1:  1.096351  0.632978  0.882594
  | Reciprocal lattice vector 2: -1.096351  0.632978  0.882594
  | Reciprocal lattice vector 3: -0.000000 -1.265957  0.882594
  | Unit cell volume                               :   0.674977E+02  A^3

  Range separation radius for Ewald summation (hartree_convergence_parameter):      3.35286743 bohr.

  Fractional coordinates:
                         L1                L2                L3
       atom_frac         0.74790000        0.74790000        0.74790000  S
       atom_frac         0.25210000        0.25210000        0.25210000  S
       atom_frac         0.50000000        0.24490000        0.75510000  Ni
       atom_frac         0.24490000        0.75510000        0.50000000  Ni
       atom_frac         0.75510000        0.50000000        0.24490000  Ni

  Number of empty states per atom not set in control.in - providing a guess from actual geometry.
  | Total number of empty states used during s.c.f. cycle:       23
  If you use a very high smearing, use empty_states (per atom!) in control.in to increase this value.

  Structure-dependent array size parameters: 
  | Maximum number of distinct radial functions  :       21
  | Maximum number of basis functions            :      170
  | Number of Kohn-Sham states (occupied + empty):       81
------------------------------------------------------------

------------------------------------------------------------
          Preparing all fixed parts of the calculation.
------------------------------------------------------------
  Determining machine precision:
    2.225073858507201E-308
  Setting up grids for atomic and cluster calculations.

  Creating wave function, potential, and density for free atoms.

  Species: S

  List of occupied orbitals and eigenvalues:
    n    l              occ      energy [Ha]    energy [eV]
    1    0           2.0000       -88.680731     -2413.1255
    2    0           2.0000        -7.781719      -211.7513
    3    0           2.0000        -0.633662       -17.2428
    2    1           6.0000        -5.751976      -156.5192
    3    1           4.0000        -0.257086        -6.9957


  Species: Ni

  List of occupied orbitals and eigenvalues:
    n    l              occ      energy [Ha]    energy [eV]
    1    0           2.0000      -304.743050     -8292.4803
    2    0           2.0000       -36.131806      -983.1965
    3    0           2.0000        -4.079607      -111.0118
    4    0           2.0000        -0.205732        -5.5982
    2    1           6.0000       -31.079526      -845.7169
    3    1           6.0000        -2.621160       -71.3254
    3    2           8.0000        -0.324430        -8.8282

  Creating fixed part of basis set: Ionic, confined, hydrogenic.
 
  S                    ion:

  List of free ionic orbitals and eigenvalues:
    n    l      energy [Ha]    energy [eV]
    1    0       -89.703778     -2440.9640
    2    0        -8.775428      -238.7916
    3    0        -1.470343       -40.0101
    2    1        -6.747660      -183.6132
    3    1        -1.048627       -28.5346


  List of ionic basis orbitals and eigenvalues:
    n    l      energy [Ha]    energy [eV]    outer radius [A]
    3    2        -0.495605       -13.4861       5.386362
    3    0        -1.470336       -40.0099       3.967934

 
  S                    hydrogenic:
 
  List of hydrogenic basis orbitals: 
    n    l      effective z      eigenvalue [eV]  inner max. [A]     outer max. [A]     outer radius [A]   
    2    1         1.800000       -11.0118           1.168531           1.168531           5.452614
    4    3         7.000000       -41.6672           1.212182           1.212182           5.066981
 
 
  Ni                   ion:

  List of free ionic orbitals and eigenvalues:
    n    l      energy [Ha]    energy [eV]
    1    0      -305.771730     -8320.4721
    2    0       -37.168450     -1011.4050
    3    0        -5.082327      -138.2972
    4    0        -0.877959       -23.8905
    2    1       -32.114551      -873.8814
    3    1        -3.616949       -98.4222
    3    2        -1.285588       -34.9826


  List of ionic basis orbitals and eigenvalues:
    n    l      energy [Ha]    energy [eV]    outer radius [A]
    4    0        -0.877949       -23.8902       4.958131

 
  Ni                   hydrogenic:
 
  List of hydrogenic basis orbitals: 
    n    l      effective z      eigenvalue [eV]  inner max. [A]     outer max. [A]     outer radius [A]   
    3    1         6.000000       -54.4226           0.263694           1.062560           4.387585
    4    3         9.000000       -68.8787           0.940288           0.940288           4.229585
    5    4        12.400000       -83.6803           1.062560           1.062560           4.334273
    3    2         5.200000       -40.8773           0.917577           0.917577           4.607470
 

  Adding cutoff potential to free-atom effective potential.
  Creating atomic-like basis functions for current effective potential.

  Species S                   :

  List of atomic basis orbitals and eigenvalues:
    n    l      energy [Ha]    energy [eV]    outer radius [A]
    1    0       -88.680731     -2413.1255       0.682391
    2    0        -7.781719      -211.7513       2.289014
    3    0        -0.633662       -17.2428       5.256262
    2    1        -5.751976      -156.5192       2.555240
    3    1        -0.257086        -6.9957       5.386362


  Species Ni                  :

  List of atomic basis orbitals and eigenvalues:
    n    l      energy [Ha]    energy [eV]    outer radius [A]
    1    0      -304.743050     -8292.4803       0.380519
    2    0       -36.131806      -983.1965       1.115810
    3    0        -4.079607      -111.0118       3.154104
    4    0        -0.205732        -5.5982       5.401105
    2    1       -31.079526      -845.7169       1.157492
    3    1        -2.621160       -71.3254       3.788913
    3    2        -0.324430        -8.8282       5.270650

  Assembling full basis from fixed parts.
  | Species S :   atomic orbital   1 s accepted.
  | Species S :   atomic orbital   2 s accepted.
  | Species S :    ionic orbital   3 s accepted.
  | Species S :   atomic orbital   3 s accepted.
  | Species S :   atomic orbital   2 p accepted.
  | Species S :   atomic orbital   3 p accepted.
  | Species S :    hydro orbital   2 p accepted.
  | Species S :    ionic orbital   3 d accepted.
  | Species S :    hydro orbital   4 f accepted.
  | Species Ni :   atomic orbital   1 s accepted.
  | Species Ni :   atomic orbital   2 s accepted.
  | Species Ni :   atomic orbital   3 s accepted.
  | Species Ni :    ionic orbital   4 s accepted.
  | Species Ni :   atomic orbital   4 s accepted.
  | Species Ni :   atomic orbital   2 p accepted.
  | Species Ni :   atomic orbital   3 p accepted.
  | Species Ni :    hydro orbital   3 p accepted.
  | Species Ni :    hydro orbital   3 d accepted.
  | Species Ni :   atomic orbital   3 d accepted.
  | Species Ni :    hydro orbital   4 f accepted.
  | Species Ni :    hydro orbital   5 g accepted.
 
  Basis size parameters after reduction:
  | Total number of radial functions:       21
  | Total number of basis functions :      170
 
  Per-task memory consumption for arrays in subroutine allocate_ext:
  |           7.547732MB.
  Testing on-site integration grid accuracy.
  |  Species  Function  <phi|h_atom|phi> (log., in eV)  <phi|h_atom|phi> (rad., in eV)
           1        1              -2413.1254568977              -2413.1254096663
           1        2               -211.7513411281               -211.7513404762
           1        3                -16.9725280787                -16.9725279206
           1        4                  7.6024436204                  7.6024549059
           1        5               -156.5192206929               -156.5192205451
           1        6                 -6.9959757887                 -6.9959777655
           1        7                  6.8896462808                  6.8895564741
           1        8                  6.0214250550                  6.0214220200
           1        9                 24.7008710786                 24.7008710738
           2       10              -8292.4803183187              -8292.4799864053
           2       11               -983.1964522319               -983.1964475627
           2       12               -111.0117677563               -111.0117669957
           2       13                 -4.6704069850                 -4.6704064205
           2       14                  5.4376377896                  5.4377770069
           2       15               -845.7169450217               -845.7169445279
           2       16                -71.3253797323                -71.3253792793
           2       17                  4.6041741906                  4.6041742555
           2       18                  6.8590345108                  6.8590343195
           2       19                  8.1931797134                  8.1931800033
           2       20                 39.2101910362                 39.2101910181
           2       21                 62.4641374386                 62.4641374755

  Preparing densities etc. for the partition functions (integrals / Hartree potential).

  Preparations completed.
  max(cpu_time)          :      0.430 s.
  Wall clock time (cpu1) :      0.468 s.
------------------------------------------------------------

------------------------------------------------------------
          Begin self-consistency loop: Initialization.

          Date     :  20200320, Time     :  115818.372
------------------------------------------------------------

  Initializing index lists of integration centers etc. from given atomic structure:
  Mapping all atomic coordinates to central unit cell.

  Initializing the k-points
  Using symmetry for reducing the k-points
  | k-points reduced from:    19683 to     9842
  | Number of k-points                             :      9842
  The eigenvectors in the calculations are COMPLEX.
  | K-points in task   0:       410
  | K-points in task   1:       411
  | K-points in task   2:       411
  | K-points in task   3:       410
  | K-points in task   4:       410
  | K-points in task   5:       410
  | K-points in task   6:       410
  | K-points in task   7:       410
  | K-points in task   8:       410
  | K-points in task   9:       410
  | K-points in task  10:       410
  | K-points in task  11:       410
  | K-points in task  12:       410
  | K-points in task  13:       410
  | K-points in task  14:       410
  | K-points in task  15:       410
  | K-points in task  16:       410
  | K-points in task  17:       410
  | K-points in task  18:       410
  | K-points in task  19:       410
  | K-points in task  20:       410
  | K-points in task  21:       410
  | K-points in task  22:       410
  | K-points in task  23:       410
  | Number of basis functions in the Hamiltonian integrals :      4632
  | Number of basis functions in a single unit cell        :       170
  | Number of centers in hartree potential         :      1258
  | Number of centers in hartree multipole         :       914
  | Number of centers in electron density summation:       650
  | Number of centers in basis integrals           :       725
  | Number of centers in integrals                 :       246
  | Number of centers in hamiltonian               :       650
  | Consuming      29526 KiB for k_phase.
  | Number of super-cells (origin) [n_cells]                     :        1331
  | Number of super-cells (after PM_index) [n_cells]             :         192
  | Number of super-cells in hamiltonian [n_cells_in_hamiltonian]:         192
  | Size of matrix packed + index [n_hamiltonian_matrix_size] :      681297
  | Estimated reciprocal-space cutoff momentum G_max:         2.94374401 bohr^-1 .
  | Reciprocal lattice points for long-range Hartree potential:     190
  Partitioning the integration grid into batches with parallel hashing+maxmin method.
  | Number of batches:     1531
  | Maximal batch size:     122
  | Minimal batch size:      21
  | Average batch size:      77.190
  | Standard deviation of batch sizes:      15.785

  Integration load balanced across    24 MPI tasks.
  Work distribution over tasks is as follows:
  Task     0 has       4941 integration points.
  Task     1 has       4925 integration points.
  Task     2 has       4964 integration points.
  Task     3 has       4882 integration points.
  Task     4 has       4914 integration points.
  Task     5 has       4925 integration points.
  Task     6 has       4935 integration points.
  Task     7 has       4889 integration points.
  Task     8 has       4934 integration points.
  Task     9 has       4943 integration points.
  Task    10 has       4891 integration points.
  Task    11 has       4886 integration points.
  Task    12 has       4952 integration points.
  Task    13 has       4966 integration points.
  Task    14 has       4963 integration points.
  Task    15 has       4881 integration points.
  Task    16 has       4895 integration points.
  Task    17 has       4895 integration points.
  Task    18 has       4930 integration points.
  Task    19 has       4929 integration points.
  Task    20 has       4942 integration points.
  Task    21 has       4937 integration points.
  Task    22 has       4954 integration points.
  Task    23 has       4905 integration points.
  Initializing partition tables, free-atom densities, potentials, etc. across the integration grid (initialize_grid_storage).
  | initialize_grid_storage: Actual outermost partition radius vs. multipole_radius_free
  | (-- VB: in principle, multipole_radius_free should be larger, hence this output)
  | Species        1: Confinement radius =              6.000000000000000 AA, multipole_radius_free =              6.012827091137924 AA.
  | Species        1: outer_partition_radius set to              6.012827091137924 AA .
  | Species        2: Confinement radius =              6.000000000000000 AA, multipole_radius_free =              6.029285478142582 AA.
  | Species        2: outer_partition_radius set to              6.029285478142582 AA .
  | The sparse table of interatomic distances needs       4581.48 kbyte instead of      4205.00 kbyte of memory.
  | Using the partition_type stratmann_smoother will reduce your memory usage.
  | Net number of integration points:   118178
  | of which are non-zero points    :    88020
  | Numerical average free-atom electrostatic potential    :    -20.58489465 eV
  Renormalizing the initial density to the exact electron count on the 3D integration grid.
  | Initial density: Formal number of electrons (from input files) :     116.0000000000
  | Integrated number of electrons on 3D grid     :     115.9999279300
  | Charge integration error                      :      -0.0000720700
  | Normalization factor for density and gradient :       1.0000006213
  Renormalizing the free-atom superposition density to the exact electron count on the 3D integration grid.
  | Formal number of electrons (from input files) :     116.0000000000
  | Integrated number of electrons on 3D grid     :     115.9999279300
  | Charge integration error                      :      -0.0000720700
  | Normalization factor for density and gradient :       1.0000006213
  Obtaining max. number of non-zero basis functions in each batch (get_n_compute_maxes).
  | Maximal number of non-zero basis functions:     1349 in task     0
  | Maximal number of non-zero basis functions:     1355 in task     1
  | Maximal number of non-zero basis functions:     1382 in task     2
  | Maximal number of non-zero basis functions:     1343 in task     3
  | Maximal number of non-zero basis functions:     1385 in task     4
  | Maximal number of non-zero basis functions:     1358 in task     5
  | Maximal number of non-zero basis functions:     1345 in task     6
  | Maximal number of non-zero basis functions:     1385 in task     7
  | Maximal number of non-zero basis functions:     1346 in task     8
  | Maximal number of non-zero basis functions:     1334 in task     9
  | Maximal number of non-zero basis functions:     1338 in task    10
  | Maximal number of non-zero basis functions:     1356 in task    11
  | Maximal number of non-zero basis functions:     1334 in task    12
  | Maximal number of non-zero basis functions:     1361 in task    13
  | Maximal number of non-zero basis functions:     1354 in task    14
  | Maximal number of non-zero basis functions:     1380 in task    15
  | Maximal number of non-zero basis functions:     1359 in task    16
  | Maximal number of non-zero basis functions:     1357 in task    17
  | Maximal number of non-zero basis functions:     1386 in task    18
  | Maximal number of non-zero basis functions:     1375 in task    19
  | Maximal number of non-zero basis functions:     1400 in task    20
  | Maximal number of non-zero basis functions:     1597 in task    21
  | Maximal number of non-zero basis functions:     1362 in task    22
  | Maximal number of non-zero basis functions:     1582 in task    23
  Allocating       86.147 MB for KS_eigenvector_complex
  Integrating Hamiltonian matrix: batch-based integration.
  Time summed over all CPUs for integration: real work       38.025 s, elapsed       39.377 s
  Integrating overlap matrix.
  Time summed over all CPUs for integration: real work       29.699 s, elapsed       31.100 s
  Decreasing sparse matrix size:
  | Tolerance:  0.1000E-12
  Hamiltonian matrix
  | Array has   586499 nonzero elements out of   681297 elements
  | Sparsity factor is 0.139
  Overlap matrix
  | Array has   542569 nonzero elements out of   681297 elements
  | Sparsity factor is 0.204
  New size of hamiltonian matrix:      586921

  Updating Kohn-Sham eigenvalues and eigenvectors using ELSI and the (modified) LAPACK eigensolver.
  Singularity check in k-point 24, task 0 (analysis for other k-points/tasks may follow below):
  Overlap matrix is not singular
  | Lowest and highest eigenvalues :  0.1288E-02,  0.6778E+01
  Finished singularity check of overlap matrix
  | Time :     0.023 s
  Starting LAPACK eigensolver
  Finished Cholesky decomposition
  | Time :     0.017 s
  Finished transformation to standard eigenproblem
  | Time :     0.002 s
  Finished solving standard eigenproblem
  | Time :     0.006 s
  Finished back-transformation of eigenvectors
  | Time :     0.000 s

  Obtaining occupation numbers and chemical potential using ELSI.
  | Chemical potential (Fermi level):    -7.90742255 eV
  Writing Kohn-Sham eigenvalues.
  K-point:       1 at    0.000000    0.000000    0.000000 (in units of recip. lattice)

  State    Occupation    Eigenvalue [Ha]    Eigenvalue [eV]
      1       2.00000        -304.769695        -8293.20536
      2       2.00000        -304.769695        -8293.20536
      3       2.00000        -304.769695        -8293.20536
      4       2.00000         -88.723887        -2414.29981
      5       2.00000         -88.723887        -2414.29981
      6       2.00000         -36.159395         -983.94720
      7       2.00000         -36.159395         -983.94720
      8       2.00000         -36.159395         -983.94720
      9       2.00000         -31.107048         -846.46585
     10       2.00000         -31.107048         -846.46585
     11       2.00000         -31.107048         -846.46585
     12       2.00000         -31.107015         -846.46495
     13       2.00000         -31.107015         -846.46495
     14       2.00000         -31.107015         -846.46495
     15       2.00000         -31.106788         -846.45876
     16       2.00000         -31.106788         -846.45876
     17       2.00000         -31.106788         -846.45876
     18       2.00000          -7.829521         -213.05210
     19       2.00000          -7.829521         -213.05210
     20       2.00000          -5.799351         -157.80836
     21       2.00000          -5.799351         -157.80836
     22       2.00000          -5.799351         -157.80836
     23       2.00000          -5.799351         -157.80836
     24       2.00000          -5.799182         -157.80378
     25       2.00000          -5.799182         -157.80377
     26       2.00000          -4.115432         -111.98659
     27       2.00000          -4.114894         -111.97196
     28       2.00000          -4.114894         -111.97196
     29       2.00000          -2.660990          -72.40922
     30       2.00000          -2.660990          -72.40922
     31       2.00000          -2.660869          -72.40593
     32       2.00000          -2.658553          -72.34292
     33       2.00000          -2.658553          -72.34292
     34       2.00000          -2.658211          -72.33361
     35       2.00000          -2.655967          -72.27255
     36       2.00000          -2.655967          -72.27254
     37       2.00000          -2.655131          -72.24979
     38       2.00000          -0.824844          -22.44515
     39       2.00000          -0.751673          -20.45407
     40       2.00000          -0.481600          -13.10499
     41       2.00000          -0.481600          -13.10499
     42       2.00000          -0.479789          -13.05573
     43       2.00000          -0.460375          -12.52744
     44       2.00000          -0.460375          -12.52744
     45       2.00000          -0.440027          -11.97375
     46       2.00000          -0.424720          -11.55723
     47       2.00000          -0.386088          -10.50600
     48       2.00000          -0.386088          -10.50600
     49       2.00000          -0.380086          -10.34268
     50       2.00000          -0.373218          -10.15577
     51       2.00000          -0.373218          -10.15577
     52       2.00000          -0.362835           -9.87323
     53       2.00000          -0.362834           -9.87323
     54       2.00000          -0.339522           -9.23886
     55       2.00000          -0.339522           -9.23886
     56       2.00000          -0.338734           -9.21742
     57       2.00000          -0.326615           -8.88765
     58       0.00000          -0.232400           -6.32393
     59       0.00000          -0.232400           -6.32393
     60       0.00000          -0.229790           -6.25292
     61       0.00000          -0.196881           -5.35740
     62       0.00000          -0.196880           -5.35737
     63       0.00000          -0.182999           -4.97967
     64       0.00000           0.028513            0.77589
     65       0.00000           0.028515            0.77594
     66       0.00000           0.034391            0.93582
     67       0.00000           0.076177            2.07289
     68       0.00000           0.076189            2.07321
     69       0.00000           0.172857            4.70368
     70       0.00000           0.172863            4.70384
     71       0.00000           0.206542            5.62028
     72       0.00000           0.248907            6.77312
     73       0.00000           0.266497            7.25174
     74       0.00000           0.266526            7.25255
     75       0.00000           0.286796            7.80412
     76       0.00000           0.338415            9.20874
     77       0.00000           0.338433            9.20924
     78       0.00000           0.393872           10.71779
     79       0.00000           0.563115           15.32313
     80       0.00000           0.568752           15.47654
     81       0.00000           0.568755           15.47662

  What follows are estimated values for band gap, HOMO, LUMO, etc.
  | They are estimated on a discrete k-point grid and not necessarily exact.
  | For converged numbers, create a DOS and/or band structure plot on a denser k-grid.

  Highest occupied state (VBM) at     -7.90749295 eV (relative to internal zero)
  | Occupation number:      1.00794354
  | K-point:    4979 at    0.333333    0.407407    0.777778 (in units of recip. lattice)

  Lowest unoccupied state (CBM) at    -7.90683175 eV (relative to internal zero)
  | Occupation number:      0.93341274
  | K-point:     754 at    0.037037    0.703704    0.111111 (in units of recip. lattice)

  ESTIMATED overall HOMO-LUMO gap:      0.00066120 eV between HOMO at k-point 4979 and LUMO at k-point 754
  | This appears to be an indirect band gap.
  | Smallest direct gap :      0.10506236 eV for k_point 8139 at    0.037037    0.703704    0.111111 (in units of recip. lattice)
  However, this system has fractional occupation numbers. Since we use a finite k-point grid,
  this material is metallic within the approximate finite broadening function (occupation_type)
  applied to determine the occupation numbers.
  Calculating total energy contributions from superposition of free atom densities.

  Total energy components:
  | Sum of eigenvalues            :       -3152.14270913 Ha      -85774.16725704 eV
  | XC energy correction          :        -242.39667157 Ha       -6595.94903164 eV
  | XC potential correction       :         314.55133403 Ha        8559.37729532 eV
  | Free-atom electrostatic energy:       -2302.23077807 Ha      -62646.88690981 eV
  | Hartree energy correction     :           0.00000000 Ha           0.00000000 eV
  | Entropy correction            :          -0.00000176 Ha          -0.00004793 eV
  | ---------------------------
  | Total energy                  :       -5382.21882474 Ha     -146457.62590317 eV
  | Total energy, T -> 0          :       -5382.21882650 Ha     -146457.62595110 eV  <-- do not rely on this value for anything but (periodic) metals
  | Electronic free energy        :       -5382.21882826 Ha     -146457.62599903 eV

  Derived energy quantities:
  | Kinetic energy                :        5449.92874651 Ha      148300.10661898 eV
  | Electrostatic energy          :      -10589.75089968 Ha     -288161.78349051 eV
  | Energy correction for multipole
  | error in Hartree potential    :           0.00000000 Ha           0.00000000 eV
  | Sum of eigenvalues per atom                           :      -17154.83345141 eV
  | Total energy (T->0) per atom                          :      -29291.52519022 eV  <-- do not rely on this value for anything but (periodic) metals
  | Electronic free energy per atom                       :      -29291.52519981 eV
  Initialize hartree_potential_storage
  Max. number of atoms included in rho_multipole:            5

  End scf initialization - timings             :  max(cpu_time)    wall_clock(cpu1)
  | Time for scf. initialization               :       12.931 s          12.968 s
  | Boundary condition initialization          :        0.481 s           0.483 s
  | Integration                                :        2.985 s           2.984 s
  | Solution of K.-S. eqns.                    :        8.342 s           8.366 s
  | Grid partitioning                          :        0.147 s           0.147 s
  | Preloading free-atom quantities on grid    :        0.022 s           0.023 s
  | Free-atom superposition energy             :        0.058 s           0.058 s
  | Total energy evaluation                    :        0.025 s           0.025 s

  Partial memory accounting:
  | Current value for overall tracked memory usage:
  |   Minimum:       97.342 MB (on task  0)
  |   Maximum:       97.552 MB (on task  1)
  |   Average:       97.359 MB
  | Peak value for overall tracked memory usage:
  |   Minimum:      116.474 MB (on task  9 after allocating wave)
  |   Maximum:      123.096 MB (on task 21 after allocating wave)
  |   Average:      117.610 MB
  | Largest tracked array allocation so far:
  |   Minimum:       86.147 MB (KS_eigenvector_complex on task  0)
  |   Maximum:       86.357 MB (KS_eigenvector_complex on task  1)
  |   Average:       86.164 MB
  Note:  These values currently only include a subset of arrays which are explicitly tracked.
  The "true" memory usage will be greater.
------------------------------------------------------------

------------------------------------------------------------
          Begin self-consistency iteration #    1

  Date     :  20200320, Time     :  115831.343
------------------------------------------------------------
  Evaluating new KS density using the density matrix
  Evaluating density matrix
  Time summed over all CPUs for getting density from density matrix: real work       70.412 s, elapsed       72.513 s
  Integration grid: deviation in total charge (<rho> - N_e) =   1.220883E-09
  Pulay mixing of updated and previous charge densities.
  Renormalizing the density to the exact electron count on the 3D integration grid.
  | Formal number of electrons (from input files) :     116.0000000000
  | Integrated number of electrons on 3D grid     :     115.9994915665
  | Charge integration error                      :      -0.0005084335
  | Normalization factor for density and gradient :       1.0000043831

  Evaluating partitioned Hartree potential by multipole expansion.
  | Original multipole sum: apparent total charge =  -0.320093E-13
  | Sum of charges compensated after spline to logarithmic grids =   0.281404E-07
  | Analytical far-field extrapolation by fixed multipoles:
  | Hartree multipole sum: apparent total charge =  -0.320970E-13
  Summing up the Hartree potential.
  Time summed over all CPUs for potential: real work       11.453 s, elapsed       12.178 s
  | RMS charge density error from multipole expansion :   0.392867E-03
  | Average real-space part of the electrostatic potential :      0.03931929 eV

  Integrating Hamiltonian matrix: batch-based integration.
  Time summed over all CPUs for integration: real work       37.461 s, elapsed       38.813 s

  Updating Kohn-Sham eigenvalues and eigenvectors using ELSI and the (modified) LAPACK eigensolver.
  Starting LAPACK eigensolver
  Finished Cholesky decomposition
  | Time :     0.001 s
  Finished transformation to standard eigenproblem
  | Time :     0.002 s
  Finished solving standard eigenproblem
  | Time :     0.006 s
  Finished back-transformation of eigenvectors
  | Time :     0.000 s

  Obtaining occupation numbers and chemical potential using ELSI.
  | Chemical potential (Fermi level):    -7.69763822 eV
  Writing Kohn-Sham eigenvalues.
  K-point:       1 at    0.000000    0.000000    0.000000 (in units of recip. lattice)

  State    Occupation    Eigenvalue [Ha]    Eigenvalue [eV]
      1       2.00000        -304.747056        -8292.58931
      2       2.00000        -304.747056        -8292.58931
      3       2.00000        -304.747056        -8292.58931
      4       2.00000         -88.730779        -2414.48735
      5       2.00000         -88.730779        -2414.48735
      6       2.00000         -36.137524         -983.35206
      7       2.00000         -36.137524         -983.35205
      8       2.00000         -36.137524         -983.35205
      9       2.00000         -31.085124         -845.86925
     10       2.00000         -31.085124         -845.86925
     11       2.00000         -31.085124         -845.86925
     12       2.00000         -31.085018         -845.86639
     13       2.00000         -31.085018         -845.86638
     14       2.00000         -31.085018         -845.86638
     15       2.00000         -31.084499         -845.85226
     16       2.00000         -31.084499         -845.85225
     17       2.00000         -31.084499         -845.85225
     18       2.00000          -7.834912         -213.19879
     19       2.00000          -7.834912         -213.19879
     20       2.00000          -5.804855         -157.95814
     21       2.00000          -5.804855         -157.95814
     22       2.00000          -5.804855         -157.95814
     23       2.00000          -5.804855         -157.95814
     24       2.00000          -5.804738         -157.95496
     25       2.00000          -5.804738         -157.95496
     26       2.00000          -4.100585         -111.58259
     27       2.00000          -4.100041         -111.56781
     28       2.00000          -4.100041         -111.56780
     29       2.00000          -2.646835          -72.02406
     30       2.00000          -2.646835          -72.02406
     31       2.00000          -2.646636          -72.01864
     32       2.00000          -2.644299          -71.95503
     33       2.00000          -2.644299          -71.95502
     34       2.00000          -2.644014          -71.94729
     35       2.00000          -2.641433          -71.87705
     36       2.00000          -2.641433          -71.87705
     37       2.00000          -2.640596          -71.85426
     38       2.00000          -0.825648          -22.46704
     39       2.00000          -0.752780          -20.48419
     40       2.00000          -0.479655          -13.05208
     41       2.00000          -0.479655          -13.05207
     42       2.00000          -0.477581          -12.99565
     43       2.00000          -0.454662          -12.37197
     44       2.00000          -0.454662          -12.37197
     45       2.00000          -0.435343          -11.84629
     46       2.00000          -0.414035          -11.26648
     47       2.00000          -0.375066          -10.20606
     48       2.00000          -0.375066          -10.20606
     49       2.00000          -0.369016          -10.04144
     50       2.00000          -0.362655           -9.86834
     51       2.00000          -0.362655           -9.86833
     52       2.00000          -0.352067           -9.58024
     53       2.00000          -0.352067           -9.58024
     54       2.00000          -0.329661           -8.97052
     55       2.00000          -0.329067           -8.95438
     56       2.00000          -0.329067           -8.95438
     57       2.00000          -0.314468           -8.55712
     58       0.00000          -0.227518           -6.19107
     59       0.00000          -0.227518           -6.19107
     60       0.00000          -0.223843           -6.09109
     61       0.00000          -0.193455           -5.26418
     62       0.00000          -0.193454           -5.26415
     63       0.00000          -0.182187           -4.95755
     64       0.00000           0.029861            0.81255
     65       0.00000           0.029862            0.81260
     66       0.00000           0.035500            0.96600
     67       0.00000           0.077663            2.11333
     68       0.00000           0.077675            2.11365
     69       0.00000           0.174101            4.73753
     70       0.00000           0.174106            4.73767
     71       0.00000           0.205528            5.59270
     72       0.00000           0.249538            6.79028
     73       0.00000           0.266466            7.25092
     74       0.00000           0.266496            7.25173
     75       0.00000           0.288591            7.85295
     76       0.00000           0.339453            9.23700
     77       0.00000           0.339472            9.23751
     78       0.00000           0.395764           10.76929
     79       0.00000           0.565632           15.39164
     80       0.00000           0.568847           15.47911
     81       0.00000           0.568850           15.47921

  What follows are estimated values for band gap, HOMO, LUMO, etc.
  | They are estimated on a discrete k-point grid and not necessarily exact.
  | For converged numbers, create a DOS and/or band structure plot on a denser k-grid.

  Highest occupied state (VBM) at     -7.69853515 eV (relative to internal zero)
  | Occupation number:      1.10093654
  | K-point:    9628 at    0.925926    0.814815    0.222222 (in units of recip. lattice)

  Lowest unoccupied state (CBM) at    -7.69689569 eV (relative to internal zero)
  | Occupation number:      0.91636719
  | K-point:     985 at    0.074074    0.111111    0.629630 (in units of recip. lattice)

  ESTIMATED overall HOMO-LUMO gap:      0.00163947 eV between HOMO at k-point 9628 and LUMO at k-point 985
  | This appears to be an indirect band gap.
  | Smallest direct gap :      0.10203301 eV for k_point 8139 at    0.074074    0.111111    0.629630 (in units of recip. lattice)
  However, this system has fractional occupation numbers. Since we use a finite k-point grid,
  this material is metallic within the approximate finite broadening function (occupation_type)
  applied to determine the occupation numbers.

  Total energy components:
  | Sum of eigenvalues            :       -3150.94035442 Ha      -85741.44952063 eV
  | XC energy correction          :        -242.45769440 Ha       -6597.60954735 eV
  | XC potential correction       :         314.63120892 Ha        8561.55080157 eV
  | Free-atom electrostatic energy:       -2302.23077807 Ha      -62646.88690981 eV
  | Hartree energy correction     :          -1.19686946 Ha         -32.56847521 eV
  | Entropy correction            :          -0.00000160 Ha          -0.00004361 eV
  | ---------------------------
  | Total energy                  :       -5382.19448744 Ha     -146456.96365144 eV
  | Total energy, T -> 0          :       -5382.19448904 Ha     -146456.96369505 eV  <-- do not rely on this value for anything but (periodic) metals
  | Electronic free energy        :       -5382.19449064 Ha     -146456.96373867 eV

  Derived energy quantities:
  | Kinetic energy                :        5450.46220369 Ha      148314.62272743 eV
  | Electrostatic energy          :      -10590.19899673 Ha     -288173.97683152 eV
  | Energy correction for multipole
  | error in Hartree potential    :          -0.00007865 Ha          -0.00214025 eV
  | Sum of eigenvalues per atom                           :      -17148.28990413 eV
  | Total energy (T->0) per atom                          :      -29291.39273901 eV  <-- do not rely on this value for anything but (periodic) metals
  | Electronic free energy per atom                       :      -29291.39274773 eV

  Self-consistency convergence accuracy:
  | Change of charge density      :  0.4589E+00
  | Change of sum of eigenvalues  :  0.3272E+02 eV
  | Change of total energy        :  0.6623E+00 eV

  End self-consistency iteration #     1       :  max(cpu_time)    wall_clock(cpu1)
  | Time for this iteration                    :       13.562 s          13.561 s
  | Charge density update                      :        4.798 s           4.797 s
  | Density mixing & preconditioning           :        0.260 s           0.260 s
  | Hartree multipole update                   :        0.002 s           0.003 s
  | Hartree multipole summation                :        0.518 s           0.518 s
  | Integration                                :        1.639 s           1.639 s
  | Solution of K.-S. eqns.                    :        6.311 s           6.312 s
  | Total energy evaluation                    :        0.024 s           0.024 s

  Partial memory accounting:
  | Current value for overall tracked memory usage:
  |   Minimum:       97.342 MB (on task  0)
  |   Maximum:       97.552 MB (on task  1)
  |   Average:       97.359 MB
  | Peak value for overall tracked memory usage:
  |   Minimum:      118.369 MB (on task  9 after allocating gradient_basis_wave)
  |   Maximum:      125.719 MB (on task 21 after allocating gradient_basis_wave)
  |   Average:      119.632 MB
  | Largest tracked array allocation so far:
  |   Minimum:       86.147 MB (KS_eigenvector_complex on task  0)
  |   Maximum:       86.357 MB (KS_eigenvector_complex on task  1)
  |   Average:       86.164 MB
  Note:  These values currently only include a subset of arrays which are explicitly tracked.
  The "true" memory usage will be greater.
------------------------------------------------------------

------------------------------------------------------------
          Begin self-consistency iteration #    2

  Date     :  20200320, Time     :  115844.905
------------------------------------------------------------
  Evaluating new KS density using the density matrix
  Evaluating density matrix
  Time summed over all CPUs for getting density from density matrix: real work       70.422 s, elapsed       72.593 s
  Integration grid: deviation in total charge (<rho> - N_e) =   1.220798E-09
  Pulay mixing of updated and previous charge densities.
  Renormalizing the density to the exact electron count on the 3D integration grid.
  | Formal number of electrons (from input files) :     116.0000000000
  | Integrated number of electrons on 3D grid     :     115.9982092145
  | Charge integration error                      :      -0.0017907855
  | Normalization factor for density and gradient :       1.0000154380

  Evaluating partitioned Hartree potential by multipole expansion.
  | Original multipole sum: apparent total charge =   0.196474E-13
  | Sum of charges compensated after spline to logarithmic grids =   0.108170E-06
  | Analytical far-field extrapolation by fixed multipoles:
  | Hartree multipole sum: apparent total charge =   0.199242E-13
  Summing up the Hartree potential.
  Time summed over all CPUs for potential: real work       12.312 s, elapsed       13.092 s
  | RMS charge density error from multipole expansion :   0.174646E-02
  | Average real-space part of the electrostatic potential :      0.16154081 eV

  Integrating Hamiltonian matrix: batch-based integration.
  Time summed over all CPUs for integration: real work       37.444 s, elapsed       38.846 s

  Updating Kohn-Sham eigenvalues and eigenvectors using ELSI and the (modified) LAPACK eigensolver.
  Starting LAPACK eigensolver
  Finished Cholesky decomposition
  | Time :     0.001 s
  Finished transformation to standard eigenproblem
  | Time :     0.001 s
  Finished solving standard eigenproblem
  | Time :     0.006 s
  Finished back-transformation of eigenvectors
  | Time :     0.000 s

  Obtaining occupation numbers and chemical potential using ELSI.
  | Chemical potential (Fermi level):    -7.02532881 eV
  What follows are estimated values for band gap, HOMO, LUMO, etc.
  | They are estimated on a discrete k-point grid and not necessarily exact.
  | For converged numbers, create a DOS and/or band structure plot on a denser k-grid.

  Highest occupied state (VBM) at     -7.02554661 eV (relative to internal zero)
  | Occupation number:      1.02457279
  | K-point:    2808 at    0.185185    0.444444    0.555556 (in units of recip. lattice)

  Lowest unoccupied state (CBM) at    -7.02509312 eV (relative to internal zero)
  | Occupation number:      0.97340990
  | K-point:     880 at    0.037037    0.925926    0.333333 (in units of recip. lattice)

  ESTIMATED overall HOMO-LUMO gap:      0.00045350 eV between HOMO at k-point 2808 and LUMO at k-point 880
  | This appears to be an indirect band gap.
  | Smallest direct gap :      0.15274068 eV for k_point 4950 at    0.037037    0.925926    0.333333 (in units of recip. lattice)
  However, this system has fractional occupation numbers. Since we use a finite k-point grid,
  this material is metallic within the approximate finite broadening function (occupation_type)
  applied to determine the occupation numbers.

  Total energy components:
  | Sum of eigenvalues            :       -3147.58202268 Ha      -85650.06466436 eV
  | XC energy correction          :        -242.62737905 Ha       -6602.22690168 eV
  | XC potential correction       :         314.85326287 Ha        8567.59319707 eV
  | Free-atom electrostatic energy:       -2302.23077807 Ha      -62646.88690981 eV
  | Hartree energy correction     :          -4.57055259 Ha        -124.37106404 eV
  | Entropy correction            :          -0.00000229 Ha          -0.00006238 eV
  | ---------------------------
  | Total energy                  :       -5382.15746953 Ha     -146455.95634282 eV
  | Total energy, T -> 0          :       -5382.15747182 Ha     -146455.95640519 eV  <-- do not rely on this value for anything but (periodic) metals
  | Electronic free energy        :       -5382.15747411 Ha     -146455.95646757 eV

  Derived energy quantities:
  | Kinetic energy                :        5451.77089965 Ha      148350.23415622 eV
  | Electrostatic energy          :      -10591.30099012 Ha     -288203.96359736 eV
  | Energy correction for multipole
  | error in Hartree potential    :          -0.00033912 Ha          -0.00922783 eV
  | Sum of eigenvalues per atom                           :      -17130.01293287 eV
  | Total energy (T->0) per atom                          :      -29291.19128104 eV  <-- do not rely on this value for anything but (periodic) metals
  | Electronic free energy per atom                       :      -29291.19129351 eV

  Self-consistency convergence accuracy:
  | Change of charge density      :  0.3676E+00
  | Change of sum of eigenvalues  :  0.9138E+02 eV
  | Change of total energy        :  0.1007E+01 eV

  End self-consistency iteration #     2       :  max(cpu_time)    wall_clock(cpu1)
  | Time for this iteration                    :       13.629 s          13.629 s
  | Charge density update                      :        4.799 s           4.799 s
  | Density mixing & preconditioning           :        0.231 s           0.231 s
  | Hartree multipole update                   :        0.002 s           0.002 s
  | Hartree multipole summation                :        0.559 s           0.559 s
  | Integration                                :        1.638 s           1.638 s
  | Solution of K.-S. eqns.                    :        6.362 s           6.368 s
  | Total energy evaluation                    :        0.024 s           0.024 s

  Partial memory accounting:
  | Current value for overall tracked memory usage:
  |   Minimum:       97.342 MB (on task  0)
  |   Maximum:       97.552 MB (on task  1)
  |   Average:       97.360 MB
  | Peak value for overall tracked memory usage:
  |   Minimum:      118.369 MB (on task  9 after allocating gradient_basis_wave)
  |   Maximum:      125.719 MB (on task 21 after allocating gradient_basis_wave)
  |   Average:      119.632 MB
  | Largest tracked array allocation so far:
  |   Minimum:       86.147 MB (KS_eigenvector_complex on task  0)
  |   Maximum:       86.357 MB (KS_eigenvector_complex on task  1)
  |   Average:       86.164 MB
  Note:  These values currently only include a subset of arrays which are explicitly tracked.
  The "true" memory usage will be greater.
------------------------------------------------------------

------------------------------------------------------------
          Begin self-consistency iteration #    3

  Date     :  20200320, Time     :  115858.535
------------------------------------------------------------
  Evaluating new KS density using the density matrix
  Evaluating density matrix
  Time summed over all CPUs for getting density from density matrix: real work       70.402 s, elapsed       72.849 s
  Integration grid: deviation in total charge (<rho> - N_e) =   1.220400E-09
  Pulay mixing of updated and previous charge densities.
  Renormalizing the density to the exact electron count on the 3D integration grid.
  | Formal number of electrons (from input files) :     116.0000000000
  | Integrated number of electrons on 3D grid     :     115.9957626221
  | Charge integration error                      :      -0.0042373779
  | Normalization factor for density and gradient :       1.0000365305

  Evaluating partitioned Hartree potential by multipole expansion.
  | Original multipole sum: apparent total charge =   0.720345E-13
  | Sum of charges compensated after spline to logarithmic grids =   0.244810E-06
  | Analytical far-field extrapolation by fixed multipoles:
  | Hartree multipole sum: apparent total charge =   0.721329E-13
  Summing up the Hartree potential.
  Time summed over all CPUs for potential: real work       12.913 s, elapsed       13.696 s
  | RMS charge density error from multipole expansion :   0.454203E-02
  | Average real-space part of the electrostatic potential :      0.28512436 eV

  Integrating Hamiltonian matrix: batch-based integration.
  Time summed over all CPUs for integration: real work       37.351 s, elapsed       38.676 s

  Updating Kohn-Sham eigenvalues and eigenvectors using ELSI and the (modified) LAPACK eigensolver.
  Starting LAPACK eigensolver
  Finished Cholesky decomposition
  | Time :     0.000 s
  Finished transformation to standard eigenproblem
  | Time :     0.001 s
  Finished solving standard eigenproblem
  | Time :     0.006 s
  Finished back-transformation of eigenvectors
  | Time :     0.000 s

  Obtaining occupation numbers and chemical potential using ELSI.
  | Chemical potential (Fermi level):    -6.91059014 eV
  What follows are estimated values for band gap, HOMO, LUMO, etc.
  | They are estimated on a discrete k-point grid and not necessarily exact.
  | For converged numbers, create a DOS and/or band structure plot on a denser k-grid.

  Highest occupied state (VBM) at     -6.91059335 eV (relative to internal zero)
  | Occupation number:      1.00036240
  | K-point:    1007 at    0.074074    0.148148    0.666667 (in units of recip. lattice)

  Lowest unoccupied state (CBM) at    -6.91058942 eV (relative to internal zero)
  | Occupation number:      0.99991864
  | K-point:    5225 at    0.333333    0.851852    0.925926 (in units of recip. lattice)

  ESTIMATED overall HOMO-LUMO gap:      0.00000393 eV between HOMO at k-point 1007 and LUMO at k-point 5225
  | This appears to be an indirect band gap.
  | Smallest direct gap :      0.12530865 eV for k_point 2669 at    0.333333    0.851852    0.925926 (in units of recip. lattice)
  However, this system has fractional occupation numbers. Since we use a finite k-point grid,
  this material is metallic within the approximate finite broadening function (occupation_type)
  applied to determine the occupation numbers.

  Checking to see if s.c.f. parameters should be adjusted.
  Adjusted the Pulay mixing parameter (charge_mix_param) for an expected low-gap system. New value:   0.020000 .
  Adjusted the occupation broadening width for an expected low-gap system. New value:      0.05000000 eV.

  Total energy components:
  | Sum of eigenvalues            :       -3147.85048542 Ha      -85657.36990739 eV
  | XC energy correction          :        -242.58378514 Ha       -6601.04065096 eV
  | XC potential correction       :         314.79581088 Ha        8566.02984876 eV
  | Free-atom electrostatic energy:       -2302.23077807 Ha      -62646.88690981 eV
  | Hartree energy correction     :          -4.28139383 Ha        -116.50265357 eV
  | Entropy correction            :          -0.00004868 Ha          -0.00132465 eV
  | ---------------------------
  | Total energy                  :       -5382.15063158 Ha     -146455.77027298 eV
  | Total energy, T -> 0          :       -5382.15068026 Ha     -146455.77159763 eV  <-- do not rely on this value for anything but (periodic) metals
  | Electronic free energy        :       -5382.15072894 Ha     -146455.77292228 eV

  Derived energy quantities:
  | Kinetic energy                :        5449.84208366 Ha      148297.74840276 eV
  | Electrostatic energy          :      -10589.40893010 Ha     -288152.47802477 eV
  | Energy correction for multipole
  | error in Hartree potential    :          -0.00078782 Ha          -0.02143761 eV
  | Sum of eigenvalues per atom                           :      -17131.47398148 eV
  | Total energy (T->0) per atom                          :      -29291.15431953 eV  <-- do not rely on this value for anything but (periodic) metals
  | Electronic free energy per atom                       :      -29291.15458446 eV

  Self-consistency convergence accuracy:
  | Change of charge density      :  0.2093E+00
  | Change of sum of eigenvalues  : -0.7305E+01 eV
  | Change of total energy        :  0.1861E+00 eV

  End self-consistency iteration #     3       :  max(cpu_time)    wall_clock(cpu1)
  | Time for this iteration                    :       13.603 s          13.602 s
  | Charge density update                      :        4.810 s           4.809 s
[...]
  | Formal number of electrons (from input files) :     116.0000000000
  | Integrated number of electrons on 3D grid     :     115.9999999996
  | Charge integration error                      :      -0.0000000004
  | Normalization factor for density and gradient :       1.0000000000

  Evaluating partitioned Hartree potential by multipole expansion.
  | Original multipole sum: apparent total charge =   0.776428E-13
  | Sum of charges compensated after spline to logarithmic grids =   0.380004E-06
  | Analytical far-field extrapolation by fixed multipoles:
  | Hartree multipole sum: apparent total charge =   0.778026E-13
  Summing up the Hartree potential.
  Time summed over all CPUs for potential: real work       13.181 s, elapsed       13.981 s
  | RMS charge density error from multipole expansion :   0.743652E-02
  | Average real-space part of the electrostatic potential :      0.41464450 eV

  Integrating Hamiltonian matrix: batch-based integration.
  Time summed over all CPUs for integration: real work       37.328 s, elapsed       38.627 s

  Updating Kohn-Sham eigenvalues and eigenvectors using ELSI and the (modified) LAPACK eigensolver.
  Starting LAPACK eigensolver
  Finished Cholesky decomposition
  | Time :     0.001 s
  Finished transformation to standard eigenproblem
  | Time :     0.001 s
  Finished solving standard eigenproblem
  | Time :     0.006 s
  Finished back-transformation of eigenvectors
  | Time :     0.001 s

  Obtaining occupation numbers and chemical potential using ELSI.
  | Chemical potential (Fermi level):    -6.74693829 eV
  What follows are estimated values for band gap, HOMO, LUMO, etc.
  | They are estimated on a discrete k-point grid and not necessarily exact.
  | For converged numbers, create a DOS and/or band structure plot on a denser k-grid.

  Highest occupied state (VBM) at     -6.74705634 eV (relative to internal zero)
  | Occupation number:      1.00266411
  | K-point:    3238 at    0.222222    0.222222    0.851852 (in units of recip. lattice)

  Lowest unoccupied state (CBM) at    -6.74590139 eV (relative to internal zero)
  | Occupation number:      0.97660291
  | K-point:     380 at    0.037037    0.000000    0.666667 (in units of recip. lattice)

  ESTIMATED overall HOMO-LUMO gap:      0.00115496 eV between HOMO at k-point 3238 and LUMO at k-point 380
  | This appears to be an indirect band gap.
  | Smallest direct gap :      0.13409325 eV for k_point 5496 at    0.037037    0.000000    0.666667 (in units of recip. lattice)
  However, this system has fractional occupation numbers. Since we use a finite k-point grid,
  this material is metallic within the approximate finite broadening function (occupation_type)
  applied to determine the occupation numbers.

  Total energy components:
  | Sum of eigenvalues            :       -3147.69836216 Ha      -85653.23042279 eV
  | XC energy correction          :        -242.58228269 Ha       -6600.99976730 eV
  | XC potential correction       :         314.79282125 Ha        8565.94849701 eV
  | Free-atom electrostatic energy:       -2302.23077807 Ha      -62646.88690981 eV
  | Hartree energy correction     :          -4.43044539 Ha        -120.55855294 eV
  | Entropy correction            :          -0.00004893 Ha          -0.00133147 eV
  | ---------------------------
  | Total energy                  :       -5382.14904706 Ha     -146455.72715584 eV
  | Total energy, T -> 0          :       -5382.14909599 Ha     -146455.72848731 eV  <-- do not rely on this value for anything but (periodic) metals
  | Electronic free energy        :       -5382.14914492 Ha     -146455.72981879 eV

  Derived energy quantities:
  | Kinetic energy                :        5448.28627304 Ha      148255.41264182 eV
  | Electrostatic energy          :      -10587.85303741 Ha     -288110.14003036 eV
  | Energy correction for multipole
  | error in Hartree potential    :          -0.00097116 Ha          -0.02642649 eV
  | Sum of eigenvalues per atom                           :      -17130.64608456 eV
  | Total energy (T->0) per atom                          :      -29291.14569746 eV  <-- do not rely on this value for anything but (periodic) metals
  | Electronic free energy per atom                       :      -29291.14596376 eV

  Self-consistency convergence accuracy:
  | Change of charge density      :  0.5891E-06
  | Change of sum of eigenvalues  :  0.6780E-07 eV
  | Change of total energy        : -0.3398E-07 eV

  Preliminary charge convergence reached. Turning off preconditioner.

  Writing Kohn-Sham eigenvalues.
  K-point:       1 at    0.000000    0.000000    0.000000 (in units of recip. lattice)

  State    Occupation    Eigenvalue [Ha]    Eigenvalue [eV]
      1       2.00000        -304.714448        -8291.70201
      2       2.00000        -304.714448        -8291.70199
      3       2.00000        -304.714448        -8291.70199
      4       2.00000         -88.761022        -2415.31031
      5       2.00000         -88.761022        -2415.31031
      6       2.00000         -36.096115         -982.22526
      7       2.00000         -36.096114         -982.22524
      8       2.00000         -36.096114         -982.22524
      9       2.00000         -31.047014         -844.83223
     10       2.00000         -31.047013         -844.83221
     11       2.00000         -31.047013         -844.83221
     12       2.00000         -31.045956         -844.80346
     13       2.00000         -31.045956         -844.80344
     14       2.00000         -31.045956         -844.80344
     15       2.00000         -31.041627         -844.68564
     16       2.00000         -31.041626         -844.68563
     17       2.00000         -31.041626         -844.68563
     18       2.00000          -7.860183         -213.88645
     19       2.00000          -7.860183         -213.88645
     20       2.00000          -5.830710         -158.66169
     21       2.00000          -5.830710         -158.66168
     22       2.00000          -5.830320         -158.65109
     23       2.00000          -5.830320         -158.65109
     24       2.00000          -5.830320         -158.65108
     25       2.00000          -5.830320         -158.65108
     26       2.00000          -4.044384         -110.05328
     27       2.00000          -4.043825         -110.03807
     28       2.00000          -4.043824         -110.03806
     29       2.00000          -2.594336          -70.59546
     30       2.00000          -2.594335          -70.59545
     31       2.00000          -2.592878          -70.55579
     32       2.00000          -2.591467          -70.51740
     33       2.00000          -2.590534          -70.49201
     34       2.00000          -2.590533          -70.49200
     35       2.00000          -2.582322          -70.26855
     36       2.00000          -2.582322          -70.26855
     37       2.00000          -2.581459          -70.24508
     38       2.00000          -0.824501          -22.43580
     39       2.00000          -0.753196          -20.49551
     40       2.00000          -0.470253          -12.79624
     41       2.00000          -0.470250          -12.79615
     42       2.00000          -0.467779          -12.72891
     43       2.00000          -0.431999          -11.75529
     44       2.00000          -0.431997          -11.75523
     45       2.00000          -0.418205          -11.37994
     46       2.00000          -0.370148          -10.07224
     47       2.00000          -0.330301           -8.98796
     48       2.00000          -0.330301           -8.98795
     49       2.00000          -0.324117           -8.81968
     50       2.00000          -0.323407           -8.80035
     51       2.00000          -0.323406           -8.80032
     52       2.00000          -0.309158           -8.41261
     53       2.00000          -0.309156           -8.41256
     54       2.00000          -0.289649           -7.88175
     55       2.00000          -0.283928           -7.72608
     56       2.00000          -0.283927           -7.72605
     57       2.00000          -0.266428           -7.24988
     58       0.00000          -0.203434           -5.53571
     59       0.00000          -0.203433           -5.53569
     60       0.00000          -0.196510           -5.34731
     61       0.00000          -0.174791           -4.75632
     62       0.00000          -0.174789           -4.75626
     63       0.00000          -0.173565           -4.72295
     64       0.00000           0.038535            1.04858
     65       0.00000           0.038536            1.04861
     66       0.00000           0.042439            1.15483
     67       0.00000           0.087422            2.37888
     68       0.00000           0.087438            2.37931
     69       0.00000           0.182595            4.96865
     70       0.00000           0.182598            4.96875
     71       0.00000           0.205148            5.58237
     72       0.00000           0.254049            6.91302
     73       0.00000           0.270139            7.35087
     74       0.00000           0.270172            7.35176
     75       0.00000           0.299428            8.14785
     76       0.00000           0.346464            9.42777
     77       0.00000           0.346485            9.42833
     78       0.00000           0.407007           11.07523
     79       0.00000           0.572436           15.57678
     80       0.00000           0.572442           15.57693
     81       0.00000           0.577537           15.71557

  What follows are estimated values for band gap, HOMO, LUMO, etc.
  | They are estimated on a discrete k-point grid and not necessarily exact.
  | For converged numbers, create a DOS and/or band structure plot on a denser k-grid.

  Highest occupied state (VBM) at     -6.74705634 eV (relative to internal zero)
  | Occupation number:      1.00266411
  | K-point:    3238 at    0.222222    0.222222    0.851852 (in units of recip. lattice)

  Lowest unoccupied state (CBM) at    -6.74590139 eV (relative to internal zero)
  | Occupation number:      0.97660291
  | K-point:     380 at    0.037037    0.000000    0.666667 (in units of recip. lattice)

  ESTIMATED overall HOMO-LUMO gap:      0.00115496 eV between HOMO at k-point 3238 and LUMO at k-point 380
  | This appears to be an indirect band gap.
  | Smallest direct gap :      0.13409325 eV for k_point 5496 at    0.037037    0.000000    0.666667 (in units of recip. lattice)
  However, this system has fractional occupation numbers. Since we use a finite k-point grid,
  this material is metallic within the approximate finite broadening function (occupation_type)
  applied to determine the occupation numbers.

  Self-consistency cycle converged.

  End self-consistency iteration #    22       :  max(cpu_time)    wall_clock(cpu1)
  | Time for this iteration                    :       13.675 s          13.675 s
  | Charge density update                      :        4.812 s           4.812 s
  | Density mixing                             :        0.236 s           0.236 s
  | Hartree multipole update                   :        0.002 s           0.002 s
  | Hartree multipole summation                :        0.597 s           0.597 s
  | Integration                                :        1.629 s           1.629 s
  | Solution of K.-S. eqns.                    :        6.361 s           6.363 s
  | Total energy evaluation                    :        0.025 s           0.024 s

  Partial memory accounting:
  | Current value for overall tracked memory usage:
  |   Minimum:       97.343 MB (on task  0)
  |   Maximum:       97.553 MB (on task  1)
  |   Average:       97.360 MB
  | Peak value for overall tracked memory usage:
  |   Minimum:      118.370 MB (on task  9 after allocating gradient_basis_wave)
  |   Maximum:      125.719 MB (on task 21 after allocating gradient_basis_wave)
  |   Average:      119.633 MB
  | Largest tracked array allocation so far:
  |   Minimum:       86.147 MB (KS_eigenvector_complex on task  0)
  |   Maximum:       86.357 MB (KS_eigenvector_complex on task  1)
  |   Average:       86.164 MB
  Note:  These values currently only include a subset of arrays which are explicitly tracked.
  The "true" memory usage will be greater.
------------------------------------------------------------

  Energy and forces in a compact form:
  | Total energy uncorrected      :         -0.146455727155839E+06 eV
  | Total energy corrected        :         -0.146455728487314E+06 eV  <-- do not rely on this value for anything but (periodic) metals
  | Electronic free energy        :         -0.146455729818788E+06 eV

  ------------------------------------ 
  Start decomposition of the XC Energy 
  ------------------------------------ 
  X and C from original XC functional choice 
  Hartree-Fock Energy :          0.000000000 Ha              0.000000000 eV
  X Energy            :       -237.270399567 Ha          -6456.456073082 eV
  C Energy            :         -5.311883128 Ha           -144.543694220 eV
  Total XC Energy     :       -242.582282695 Ha          -6600.999767301 eV
  ------------------------------------ 
  LDA X and C from self-consistent density 
  X Energy LDA        :       -222.953055822 Ha          -6066.861327415 eV
  C Energy LDA        :         -9.874819246 Ha           -268.707503384 eV
  ------------------------------------ 
  End decomposition of the XC Energy 
  ------------------------------------ 

------------------------------------------------------------

------------------------------------------------------------------------------
  Final output of selected total energy values:

  The following output summarizes some interesting total energy values
  at the end of a run (AFTER all relaxation, molecular dynamics, etc.).

  | Total energy of the DFT / Hartree-Fock s.c.f. calculation      :        -146455.727155839 eV
  | Final zero-broadening corrected energy (caution - metals only) :        -146455.728487314 eV
  | For reference only, the value of 1 Hartree used in FHI-aims is :             27.211384500 eV
  | For reference only, the overall average (free atom contribution
  | + realspace contribution) of the electrostatic potential after
  | s.c.f. convergence is                                          :            -20.170250145 eV

  Before relying on these values, please be sure to understand exactly which
  total energy value is referred to by a given number. Different objects may
  all carry the same name 'total energy'. Definitions:

  Total energy of the DFT / Hartree-Fock s.c.f. calculation:
  | Note that this energy does not include ANY quantities calculated after the
  | s.c.f. cycle, in particular not ANY RPA, MP2, etc. many-body perturbation terms.

  Final zero-broadening corrected energy:
  | For metallic systems only, a broadening of the occupation numbers at the Fermi
  | level can be extrapolated back to zero broadening by an electron-gas inspired
  | formula. For all systems that are not real metals, this value can be
  | meaningless and should be avoided.

------------------------------------------------------------------------------
  Methods described in the following list of references were used in this FHI-aims run.
  If you publish the results, please make sure to cite these reference if they apply.
  FHI-aims is an academic code, and for our developers (often, Ph.D. students
  and postdocs), scientific credit in the community is essential.
  Thank you for helping us!

  For any use of FHI-aims, please cite:

    Volker Blum, Ralf Gehrke, Felix Hanke, Paula Havu, Ville Havu,
    Xinguo Ren, Karsten Reuter, and Matthias Scheffler
    'Ab initio molecular simulations with numeric atom-centered orbitals'
    Computer Physics Communications 180, 2175-2196 (2009)
    http://dx.doi.org/10.1016/j.cpc.2009.06.022


  The provided symmetry information was generated with SPGlib:

    Atsushi Togo, Yusuke Seto, Dimitar Pashov
    SPGlib 1.7.3 obtained from http://spglib.sourceforge.net
    Copyright (C) 2008 Atsushi Togo


  The ELSI infrastructure was used in your run to solve the Kohn-Sham electronic structure.
  Please check out http://elsi-interchange.org to learn more.
  If scalability is important for your project, please acknowledge ELSI by citing:

    V. W-z. Yu, F. Corsetti, A. Garcia, W. P. Huhn, M. Jacquelin, W. Jia,
    B. Lange, L. Lin, J. Lu, W. Mi, A. Seifitokaldani, A. Vazquez-Mayagoitia,
    C. Yang, H. Yang, and V. Blum
    'ELSI: A unified software interface for Kohn-Sham electronic structure solvers'
    Computer Physics Communications 222, 267-285 (2018).
    http://dx.doi.org/10.1016/j.cpc.2017.09.007


  For the real-space grid partitioning and parallelization used in this calculation, please cite:

    Ville Havu, Volker Blum, Paula Havu, and Matthias Scheffler,
    'Efficient O(N) integration for all-electron electronic structure calculation'
    'using numerically tabulated basis functions'
    Journal of Computational Physics 228, 8367-8379 (2009).
    http://dx.doi.org/10.1016/j.jcp.2009.08.008

  Of course, there are many other important community references, e.g., those cited in the
  above references. Our list is limited to references that describe implementations in the
  FHI-aims code. The reason is purely practical (length of this list) - please credit others as well.

------------------------------------------------------------
          Leaving FHI-aims.
          Date     :  20200320, Time     :  120332.177

          Computational steps:
          | Number of self-consistency cycles          :           22
          | Number of SCF (re)initializations          :            1

          Detailed time accounting                     :  max(cpu_time)    wall_clock(cpu1)
          | Total time                                 :      314.320 s         314.576 s
          | Preparation time                           :        0.430 s           0.468 s
          | Boundary condition initalization           :        0.481 s           0.483 s
          | Grid partitioning                          :        0.147 s           0.147 s
          | Preloading free-atom quantities on grid    :        0.022 s           0.023 s
          | Free-atom superposition energy             :        0.058 s           0.058 s
          | Total time for integrations                :       39.006 s          39.001 s
          | Total time for solution of K.-S. equations :      148.002 s         148.194 s
          | Total time for density update              :      105.844 s         105.836 s
          | Total time for mixing & preconditioning    :        5.274 s           5.276 s
          | Total time for Hartree multipole update    :        0.054 s           0.054 s
          | Total time for Hartree multipole sum       :       13.026 s          13.025 s
          | Total time for total energy evaluation     :        0.567 s           0.562 s
          | Total time for scaled ZORA corrections     :        0.000 s           0.000 s

          Partial memory accounting:
          | Residual value for overall tracked memory usage across tasks:     0.000000 MB (should be 0.000000 MB)
          | Peak values for overall tracked memory usage:
          |   Minimum:      118.370 MB (on task  9 after allocating gradient_basis_wave)
          |   Maximum:      125.719 MB (on task 21 after allocating gradient_basis_wave)
          |   Average:      119.633 MB
          | Largest tracked array allocation:
          |   Minimum:       86.147 MB (KS_eigenvector_complex on task  0)
          |   Maximum:       86.357 MB (KS_eigenvector_complex on task  1)
          |   Average:       86.164 MB
          Note:  These values currently only include a subset of arrays which are explicitly tracked.
          The "true" memory usage will be greater.

          Have a nice day.
------------------------------------------------------------
