------------------------------------------------------------
          Invoking FHI-aims ...

          When using FHI-aims, please cite the following reference:

          Volker Blum, Ralf Gehrke, Felix Hanke, Paula Havu,
          Ville Havu, Xinguo Ren, Karsten Reuter, and Matthias Scheffler,
          'Ab Initio Molecular Simulations with Numeric Atom-Centered Orbitals',
          Computer Physics Communications 180, 2175-2196 (2009)

          For any questions about FHI-aims, please visit the aimsclub website
          with its forums and wiki. Contributions to both the forums and the
          wiki are warmly encouraged - they are for you, and everyone is welcome there.

------------------------------------------------------------



  Date     :  20200320, Time     :  143711.385
  Time zero on CPU 1             :   0.136400000000000E+00  s.
  Internal wall clock time zero  :           353947031.385  s.

  FHI-aims created a unique identifier for this run for later identification
  aims_uuid : 09EA079F-C44B-4FB1-A114-EAE92FCFACD3

  Build configuration of the current instance of FHI-aims
  -------------------------------------------------------
  FHI-aims version      : 200112
  Commit number         : 23daeca3f
  CMake host system     : Linux-3.10.0-693.21.1.el7.x86_64
  CMake version         : 3.13.3
  Fortran compiler      : /sw/installed/impi/2018.4.274-iccifort-2019.1.144-GCC-8.2.0-2.31.1/bin64/mpiifort (Intel) version 19.0.0.20181018
  Fortran compiler flags: -O3 -ip -fp-model precise
  C compiler            : /sw/installed/impi/2018.4.274-iccifort-2019.1.144-GCC-8.2.0-2.31.1/bin64/mpiicc (Intel) version 19.0.0.20181018
  C compiler flags      : -O3 -ip -fp-model precise
  Architecture          :
  Using MPI
  Using Scalapack
  Using C files
  Using LibXC
  Using SPGlib
  Using i-PI
  Using RLSY
  Linking against: /sw/installed/imkl/2019.1.144-iimpi-2019a/mkl/lib/intel64/libmkl_intel_lp64.so
                   /sw/installed/imkl/2019.1.144-iimpi-2019a/mkl/lib/intel64/libmkl_sequential.so
                   /sw/installed/imkl/2019.1.144-iimpi-2019a/mkl/lib/intel64/libmkl_core.so
                   /sw/installed/imkl/2019.1.144-iimpi-2019a/mkl/lib/intel64/libmkl_blacs_intelmpi_lp64.so
                   /sw/installed/imkl/2019.1.144-iimpi-2019a/mkl/lib/intel64/libmkl_scalapack_lp64.so

  Using       24 parallel tasks.
  Task        0 on host taurusi6567.taurus.hrsk.tu-dresden.de reporting.
  Task        1 on host taurusi6567.taurus.hrsk.tu-dresden.de reporting.
  Task        2 on host taurusi6567.taurus.hrsk.tu-dresden.de reporting.
  Task        3 on host taurusi6567.taurus.hrsk.tu-dresden.de reporting.
  Task        4 on host taurusi6567.taurus.hrsk.tu-dresden.de reporting.
  Task        5 on host taurusi6567.taurus.hrsk.tu-dresden.de reporting.
  Task        6 on host taurusi6567.taurus.hrsk.tu-dresden.de reporting.
  Task        7 on host taurusi6567.taurus.hrsk.tu-dresden.de reporting.
  Task        8 on host taurusi6567.taurus.hrsk.tu-dresden.de reporting.
  Task        9 on host taurusi6567.taurus.hrsk.tu-dresden.de reporting.
  Task       10 on host taurusi6567.taurus.hrsk.tu-dresden.de reporting.
  Task       11 on host taurusi6567.taurus.hrsk.tu-dresden.de reporting.
  Task       12 on host taurusi6567.taurus.hrsk.tu-dresden.de reporting.
  Task       13 on host taurusi6567.taurus.hrsk.tu-dresden.de reporting.
  Task       14 on host taurusi6567.taurus.hrsk.tu-dresden.de reporting.
  Task       15 on host taurusi6567.taurus.hrsk.tu-dresden.de reporting.
  Task       16 on host taurusi6567.taurus.hrsk.tu-dresden.de reporting.
  Task       17 on host taurusi6567.taurus.hrsk.tu-dresden.de reporting.
  Task       18 on host taurusi6567.taurus.hrsk.tu-dresden.de reporting.
  Task       19 on host taurusi6567.taurus.hrsk.tu-dresden.de reporting.
  Task       20 on host taurusi6567.taurus.hrsk.tu-dresden.de reporting.
  Task       21 on host taurusi6567.taurus.hrsk.tu-dresden.de reporting.
  Task       22 on host taurusi6567.taurus.hrsk.tu-dresden.de reporting.
  Task       23 on host taurusi6567.taurus.hrsk.tu-dresden.de reporting.

  Performing system and environment tests:
  | Environment variable OMP_NUM_THREADS correctly set to 1.
  | Maximum stacksize for task 0: unlimited
  | Maximum stacksize for task 1: unlimited
  | Maximum stacksize for task 2: unlimited
  | Maximum stacksize for task 3: unlimited
  | Maximum stacksize for task 4: unlimited
  | Maximum stacksize for task 5: unlimited
  | Maximum stacksize for task 6: unlimited
  | Maximum stacksize for task 7: unlimited
  | Maximum stacksize for task 8: unlimited
  | Maximum stacksize for task 9: unlimited
  | Maximum stacksize for task 10: unlimited
  | Maximum stacksize for task 11: unlimited
  | Maximum stacksize for task 12: unlimited
  | Maximum stacksize for task 13: unlimited
  | Maximum stacksize for task 14: unlimited
  | Maximum stacksize for task 15: unlimited
  | Maximum stacksize for task 16: unlimited
  | Maximum stacksize for task 17: unlimited
  | Maximum stacksize for task 18: unlimited
  | Maximum stacksize for task 19: unlimited
  | Maximum stacksize for task 20: unlimited
  | Maximum stacksize for task 21: unlimited
  | Maximum stacksize for task 22: unlimited
  | Maximum stacksize for task 23: unlimited
  | Current stacksize for task 0: unlimited
  | Current stacksize for task 1: unlimited
  | Current stacksize for task 2: unlimited
  | Current stacksize for task 3: unlimited
  | Current stacksize for task 4: unlimited
  | Current stacksize for task 5: unlimited
  | Current stacksize for task 6: unlimited
  | Current stacksize for task 7: unlimited
  | Current stacksize for task 8: unlimited
  | Current stacksize for task 9: unlimited
  | Current stacksize for task 10: unlimited
  | Current stacksize for task 11: unlimited
  | Current stacksize for task 12: unlimited
  | Current stacksize for task 13: unlimited
  | Current stacksize for task 14: unlimited
  | Current stacksize for task 15: unlimited
  | Current stacksize for task 16: unlimited
  | Current stacksize for task 17: unlimited
  | Current stacksize for task 18: unlimited
  | Current stacksize for task 19: unlimited
  | Current stacksize for task 20: unlimited
  | Current stacksize for task 21: unlimited
  | Current stacksize for task 22: unlimited
  | Current stacksize for task 23: unlimited
  | Checking for scalapack...
  | Testing pdtran()...
  | All pdtran() tests passed.

  Obtaining array dimensions for all initial allocations:
  
  -----------------------------------------------------------------------
  Parsing control.in (first pass over file, find array dimensions only).
  The contents of control.in will be repeated verbatim below
  unless switched off by setting 'verbatim_writeout .false.' .
  in the first line of control.in .
  -----------------------------------------------------------------------
  
  #===============================================================================
  # FHI-aims file: ./control.in
  # Created using the Atomic Simulation Environment (ASE)
  # Thu Mar 19 17:13:27 2020
  #===============================================================================
  xc                                 pbe
  # include_spin_orbit
  # vdw_correction_hirshfeld
  # many_body_dispersion_nl 	 beta=0.81
  spin                               none
  k_grid 	 	 29 29 29
  relativistic                       atomic_zora scalar
  ### SCF settings
  adjust_scf 	 always 	 3
  # frozen_core_scf 	 .true.
  # charge_mix_param  0.05
  # occupation_type 	 gaussian 	 0.01
  # sc_accuracy_eev   1E-3 	 	 # sum of eigenvalues convergence
  # sc_accuracy_etot  1E-6 	 	 # total energy convergence
  # sc_accuracy_rho   1E-3 	 	 # electron density convergence
  # elsi_restart 	 read_and_write 	 1000
  #===============================================================================
  
  ################################################################################
  #
  #  FHI-aims code project
  # Volker Blum, Fritz Haber Institute Berlin, 2009
  #
  #  Suggested "tight" defaults for Fe atom (to be pasted into control.in file)
  #
  #  2016/05/03, VB:
  #  Added d and p function from tier2 to list of functions that are included in
  #  tight / really_tight by default.
  #
  #  This is done in analogy to Co and Ni. In the case of Fe, the change was
  #  triggered by specific tests that indicated that the total energy of bulk
  #  Fe is decreased by ~50 meV using these changes. The impact on total energy
  #  differences between bonded structures is likely much smaller.
  #
  #  This change is a borderline case, though, since it makes "tight" calculations
  #  with Fe much more expensive for a relatively small gain. This is particularly
  #  challenging for hybrid functionals.
  #
  #  For any calculations where time is critical - especially hybrid functionals,
  #  but also LDA / GGA - it would seem to be very safe to use only the radial
  #  functions in tier1, i.e., comment out the additional d and p function of tier2.
  #
  ################################################################################
    species        Fe
  #     global species definitions
      nucleus             26
      mass                55.845
  #
      l_hartree           6
  #
      cut_pot             4.0          2.0  1.0
      basis_dep_cutoff    1e-4
  #
      radial_base         51 7.0
      radial_multiplier   2
      angular_grids       specified
        division   0.2739   50
        division   0.5898  110
        division   0.9223  194
        division   1.1267  302
        division   1.3186  434
  #      division   1.5125  590
  #      division   1.7365  770
  #      division   1.9990  974
  #      division   2.7593 1202
  #      outer_grid  1202
        outer_grid  434
  ################################################################################
  #
  #  Definition of "minimal" basis
  #
  ################################################################################
  #     valence basis states
      valence      4  s   2.
      valence      3  p   6.
      valence      3  d   6.
  #     ion occupancy
      ion_occ      4  s   1.
      ion_occ      3  p   6.
      ion_occ      3  d   5.
  ################################################################################
  #
  #  Suggested additional basis functions. For production calculations,
  #  uncomment them one after another (the most important basis functions are
  #  listed first).
  #
  #  Constructed for dimers: 1.45 A, 1.725 A, 2.25 A, 3.00 A, 4.00 A
  #
  ################################################################################
  #  "First tier" - improvements: -300.53 meV to -10.50 meV
       hydro 4 f 9.4
       hydro 2 p 2.2
       hydro 5 g 12.4
       hydro 3 d 3.1
       ionic 4 s auto
  #  "Second tier" - improvements: -16.31 meV to -0.65 meV
  #    hydro 3 d 6.2
  #     hydro 6 h 19.2
  #     hydro 4 f 15.2
  #     hydro 4 f 6.6
  #     hydro 3 p 3
  #     hydro 5 g 13.2
  #     hydro 1 s 0.65
  #  "Third tier" - improvements: -1.60 meV to -0.10 meV
  #     hydro 4 d 7.8
  #     hydro 4 p 19.6
  #     hydro 4 d 10.4
  #     ionic 4 p auto
  #     hydro 6 h 17.6
  #     hydro 5 f 27.2
  #     hydro 4 s 4.8
  #  "Fourth tier": improvements -0.13 meV and below
  #     hydro 5 f 12
  #     hydro 5 g 10.4
  #     hydro 5 p 8.4
  #     hydro 4 d 14.8
  #     hydro 2 s 1.9
  ################################################################################
  #
  #  FHI-aims code project
  # Volker Blum, Fritz Haber Institute Berlin, 2009
  #
  #  Suggested "tight" defaults for S atom (to be pasted into control.in file)
  #
  #  Revised Jan 04, 2011, following tests (SiC) done by Lydia Nemec:
  #     d and g functions of tier 2 now enabled by default.
  #
  ################################################################################
    species        S
  #     global species definitions
      nucleus             16
      mass                32.065
  #
      l_hartree           6
  #
      cut_pot             4.0          2.0  1.0
      basis_dep_cutoff    1e-4
  #
      radial_base         44 7.0
      radial_multiplier   2
      angular_grids       specified
        division   0.4665  110
        division   0.5810  194
        division   0.7139  302
        division   0.8274  434
  #      division   0.9105  590
  #      division   1.0975  770
  #      division   1.2028  974
  #      outer_grid  974
        outer_grid  434
  ################################################################################
  #
  #  Definition of "minimal" basis
  #
  ################################################################################
  #     valence basis states
      valence      3  s   2.
      valence      3  p   4.
  #     ion occupancy
      ion_occ      3  s   1.
      ion_occ      3  p   3.
  ################################################################################
  #
  #  Suggested additional basis functions. For production calculations,
  #  uncomment them one after another (the most important basis functions are
  #  listed first).
  #
  #  Constructed for dimers: 1.6 A, 1.9 A, 2.5 A, 3.25 A, 4.0 A
  #
  ################################################################################
  #  "First tier" - improvements: -652.81 meV to -45.53 meV
       ionic 3 d auto
       hydro 2 p 1.8
       hydro 4 f 7
       ionic 3 s auto
  #  "Second tier" - improvements: -30.20 meV to -1.74 meV
       hydro 4 d 6.2
       hydro 5 g 10.8
       hydro 4 p 4.9
       hydro 5 f 10
       hydro 1 s 0.8
  #  "Third tier" - improvements: -1.04 meV to -0.20 meV
  #     hydro 3 d 3.9
  #     hydro 3 d 2.7
  #     hydro 5 g 12
  #     hydro 4 p 10.4
  #     hydro 5 f 12.4
  #     hydro 2 s 1.9
  #  "Fourth tier" - improvements: -0.35 meV to -0.06 meV
  #     hydro 4 d 10.4
  #     hydro 4 p 7.2
  #     hydro 4 d 10
  #     hydro 5 g 19.2
  #     hydro 4 s 12
  #
  ################################################################################
  #
  # For methods that use the localized form of the "resolution of identity" for
  # the two-electron Coulomb operator (RI_method LVL), particularly Hartree-Fock and
  # hybrid density functional calculations, the highest accuracy can be obtained by
  # uncommenting the line beginning with "for_aux"  below, thus adding an extra g radial
  # function to the construction of the product basis set for the expansion.
  # See Ref. New J. Phys. 17, 093020 (2015) for more information, particularly Figs. 1 and 6.
  #
  ################################################################################
  #
  # for_aux hydro 5 g 6.0
  
  -----------------------------------------------------------------------
  Completed first pass over input file control.in .
  -----------------------------------------------------------------------
  
  
  -----------------------------------------------------------------------
  Parsing geometry.in (first pass over file, find array dimensions only).
  The contents of geometry.in will be repeated verbatim below
  unless switched off by setting 'verbatim_writeout .false.' .
  in the first line of geometry.in .
  -----------------------------------------------------------------------
  
  #=======================================================
  # FHI-aims file: ./geometry.in
  # Created using the Atomic Simulation Environment (ASE)
  # Thu Mar 19 17:13:27 2020
  #=======================================================
  lattice_vector 5.4100000000000001 0.0000000000000000 0.0000000000000000
  lattice_vector 0.0000000000000000 5.4100000000000001 0.0000000000000000
  lattice_vector 0.0000000000000000 0.0000000000000000 5.4100000000000001
  atom_frac 0.0000000000000000 0.0000000000000000 0.0000000000000000 Fe
  atom_frac 0.0000000000000000 0.5000000000000000 0.5000000000000000 Fe
  atom_frac 0.5000000000000000 0.0000000000000000 0.5000000000000000 Fe
  atom_frac 0.5000000000000000 0.5000000000000000 0.0000000000000000 Fe
  atom_frac 0.3860000000000000 0.3860000000000000 0.3860000000000000 S
  atom_frac 0.6140000000000001 0.6140000000000001 0.6140000000000001 S
  atom_frac 0.8860000000000000 0.1140000000000000 0.6140000000000001 S
  atom_frac 0.1140000000000000 0.8860000000000000 0.3860000000000000 S
  atom_frac 0.6140000000000001 0.8860000000000000 0.1140000000000000 S
  atom_frac 0.3860000000000000 0.1140000000000000 0.8860000000000000 S
  atom_frac 0.1140000000000000 0.6140000000000001 0.8860000000000000 S
  atom_frac 0.8860000000000000 0.3860000000000000 0.1140000000000000 S
  
  -----------------------------------------------------------------------
  Completed first pass over input file geometry.in .
  -----------------------------------------------------------------------
  

  Basic array size parameters:
  | Number of species                 :        2
  | Number of atoms                   :       12
  | Number of lattice vectors         :        3
  | Max. basis fn. angular momentum   :        4
  | Max. atomic/ionic basis occupied n:        4
  | Max. number of basis fn. types    :        3
  | Max. radial fns per species/type  :        7
  | Max. logarithmic grid size        :     1397
  | Max. radial integration grid size :      103
  | Max. angular integration grid size:      434
  | Max. angular grid division number :        8
  | Radial grid for Hartree potential :     1397
  | Number of spin channels           :        1

------------------------------------------------------------
          Reading file control.in.
------------------------------------------------------------
  XC: Using PBE gradient-corrected functionals.
  Spin treatment: No spin polarisation.
  Found k-point grid:        29        29        29
  Scalar relativistic treatment of kinetic energy: on-site free-atom approximation to ZORA.
  S.C.F. convergence parameters will be adjusted in iteration number     3 of each new s.c.f. cycle.
 
  Reading configuration options for species Fe                  .
  | Found nuclear charge :  26.0000
  | Found atomic mass :    55.8450000000000      amu
  | Found l_max for Hartree potential  :   6
  | Found cutoff potl. onset [A], width [A], scale factor :    4.00000    2.00000    1.00000
  | Threshold for basis-dependent cutoff potential is   0.100000E-03
  | Found data for basic radial integration grid :    51 points, outermost radius =    7.000 A
  | Found multiplier for basic radial grid :   2
  | Found angular grid specification: user-specified.
  | Specified grid contains     6 separate shells.
  | Check grid settings after all constraints further below.
  | Found free-atom valence shell :  4 s   2.000
  | Found free-atom valence shell :  3 p   6.000
  | Found free-atom valence shell :  3 d   6.000
  | Found free-ion valence shell :  4 s   1.000
  | Found free-ion valence shell :  3 p   6.000
  | Found free-ion valence shell :  3 d   5.000
  | Found hydrogenic basis function :  4 f   9.400
  | Found hydrogenic basis function :  2 p   2.200
  | Found hydrogenic basis function :  5 g  12.400
  | Found hydrogenic basis function :  3 d   3.100
  | Found ionic basis function :  4 s , default cutoff radius.
  Species Fe                  : Missing cutoff potential type.
  Defaulting to exp(1/x)/(1-x)^2 type cutoff potential.
  Species Fe: No 'logarithmic' tag. Using default grid for free atom:
  | Default logarithmic grid data [bohr] : 0.1000E-03 0.1000E+03 0.1012E+01
  | Will include ionic basis functions of  2.0-fold positive Fe                   ion.
  Species Fe: On-site basis accuracy parameter (for Gram-Schmidt orthonormalisation) not specified.
  Using default value basis_acc =  0.1000000E-03.
  Species Fe                  : Using default innermost maximum threshold i_radial=  2 for radial functions.
  Species Fe                  : Default cutoff onset for free atom density etc. : 0.40000000E+01 AA.
  Species Fe                  : Basic radial grid will be enhanced according to radial_multiplier =   2, to contain   103 grid points.
 
  Reading configuration options for species S                   .
  | Found nuclear charge :  16.0000
  | Found atomic mass :    32.0650000000000      amu
  | Found l_max for Hartree potential  :   6
  | Found cutoff potl. onset [A], width [A], scale factor :    4.00000    2.00000    1.00000
  | Threshold for basis-dependent cutoff potential is   0.100000E-03
  | Found data for basic radial integration grid :    44 points, outermost radius =    7.000 A
  | Found multiplier for basic radial grid :   2
  | Found angular grid specification: user-specified.
  | Specified grid contains     5 separate shells.
  | Check grid settings after all constraints further below.
  | Found free-atom valence shell :  3 s   2.000
  | Found free-atom valence shell :  3 p   4.000
  | Found free-ion valence shell :  3 s   1.000
  | Found free-ion valence shell :  3 p   3.000
  | Found ionic basis function :  3 d , default cutoff radius.
  | Found hydrogenic basis function :  2 p   1.800
  | Found hydrogenic basis function :  4 f   7.000
  | Found ionic basis function :  3 s , default cutoff radius.
  | Found hydrogenic basis function :  4 d   6.200
  | Found hydrogenic basis function :  5 g  10.800
  | Found hydrogenic basis function :  4 p   4.900
  | Found hydrogenic basis function :  5 f  10.000
  | Found hydrogenic basis function :  1 s   0.800
  Species S                   : Missing cutoff potential type.
  Defaulting to exp(1/x)/(1-x)^2 type cutoff potential.
  Species S : No 'logarithmic' tag. Using default grid for free atom:
  | Default logarithmic grid data [bohr] : 0.1000E-03 0.1000E+03 0.1012E+01
  | Will include ionic basis functions of  2.0-fold positive S                    ion.
  Species S : On-site basis accuracy parameter (for Gram-Schmidt orthonormalisation) not specified.
  Using default value basis_acc =  0.1000000E-03.
  Species S                   : Using default innermost maximum threshold i_radial=  2 for radial functions.
  Species S                   : Default cutoff onset for free atom density etc. : 0.40000000E+01 AA.
  Species S                   : Basic radial grid will be enhanced according to radial_multiplier =   2, to contain    89 grid points.
 
  Finished reading input file 'control.in'. Consistency checks are next.
 
  MPI_IN_PLACE appears to work with this MPI implementation.
  | Keeping use_mpi_in_place .true. (see manual).
  Target number of points in a grid batch is not set. Defaulting to  100
  Method for grid partitioning is not set. Defaulting to parallel hash+maxmin partitioning.
  Batch size limit is not set. Defaulting to    200
  By default, will store active basis functions for each batch.
  If in need of memory, prune_basis_once .false. can be used to disable this option.
  communication_type for Hartree potential was not specified.
  Defaulting to calc_hartree .
  Defaulting to Pulay charge density mixer.
  Pulay mixer: Number of relevant iterations not set.
  Defaulting to    8 iterations.
  Pulay mixer: Number of initial linear mixing iterations not set.
  Defaulting to    0 iterations.
  Work space size for distributed Hartree potential not set.
  Defaulting to   0.200000E+03 MB.
  Mixing parameter for charge density mixing has not been set.
  Using default: charge_mix_param =     0.0500.
  The mixing parameter will be adjusted in iteration number     3 of each s.c.f. cycle (i.e., each geometry step).
  Algorithm-dependent basis array size parameters:
  | n_max_pulay                         :        8
  Maximum number of self-consistency iterations not provided.
  Presetting  1000 iterations.
  Presetting      1001 iterations before the initial mixing cycle
  is restarted anyway using the sc_init_iter criterion / keyword.
  Presetting a factor      1.000 between actual scf density residual
  and density convergence criterion sc_accuracy_rho below which sc_init_iter
  takes no effect.
 * No s.c.f. convergence criteria (sc_accuracy_*) were provided in control.in.
 * The run will proceed with a reasonable default guess, but please check whether.
 * the s.c.f. cycles seem to take too much or too little time.
  Calculation of forces was not defined in control.in. No forces will be calculated.
  Geometry relaxation not requested: no relaxation will be performed.
 * Notice: The s.c.f. convergence criterion sc_accuracy_rho was not provided.
 * We used to stop in this case, and ask the user to provide reasonable
 * scf convergence criteria. However, this led some users to employ criteria
 * that led to extremely long run times, e.g., for simple relaxation.
 * We now preset a default value for sc_accuracy_rho if it is not set.
 * You may still wish to check if this setting is too tight or too loose for your needs.
 * Based on n_atoms, FHI-aims chose sc_accuracy_rho =  0.200000E-05 .
  No accuracy limit for integral partition fn. given. Defaulting to  0.1000E-14.
  No threshold value for u(r) in integrations given. Defaulting to  0.1000E-05.
  No occupation type (smearing scheme) given. Defaulting to Gaussian broadening, width =  0.1000E-01 eV.
  The width will be adjusted in iteration number     3 of each s.c.f. cycle (i.e., each geometry step).
  S.C.F. convergence parameters will be adjusted in iteration number     3 of the first full s.c.f. cycle only.
  No accuracy for occupation numbers given. Defaulting to  0.1000E-12.
  No threshold value for occupation numbers given. Defaulting to  0.0000E+00.
  No accuracy for fermi level given. Defaulting to  0.1000E-19.
  Maximum # of iterations to find E_F not set. Defaulting to  200.
  Preferred method for the eigenvalue solver ('KS_method') not specified in 'control.in'.
  Defaulting to serial version, LAPACK (via ELSI), since more k-points than CPUs available.
  Will not use alltoall communication since running on < 1024 CPUs.
  Threshold for basis singularities not set.
  Default threshold for basis singularities:  0.1000E-04
  partition_type (choice of integration weights) for integrals was not specified.
  | Using a version of the partition function of Stratmann and coworkers ('stratmann_sparse').
  | At each grid point, the set of atoms used to build the partition table is smoothly restricted to
  | only those atoms whose free-atom density would be non-zero at that grid point.
  Partitioning for Hartree potential was not defined. Using partition_type for integrals.
  | Adjusted default value of keyword multip_moments_threshold to:       0.10000000E-11
  | This value may affect high angular momentum components of the Hartree potential in periodic systems.
  Angular momentum expansion for Kerker preconditioner not set explicitly.
  | Using default value of   0
  No explicit requirement for turning off preconditioner.
  | By default, it will be turned off when the charge convergence reaches
  | sc_accuracy_rho  =   0.200000E-05
  No special mixing parameter while Kerker preconditioner is on.
  Using default: charge_mix_param =     0.0500.
  No q(lm)/r^(l+1) cutoff set for long-range Hartree potential.
  | Using default value of  0.100000E-09 .
  | Verify using the multipole_threshold keyword.
  Defaulting to new monopole extrapolation.
  Density update method: automatic selection selected.
  Using density matrix based charge density update.
  Using density matrix based charge density update.
  Using packed matrix style: index .
  Defaulting to use time-reversal symmetry for k-point grid.
  Charge integration errors on the 3D integration grid will be compensated
  by explicit normalization and distribution of residual charges.
  Use the "compensate_multipole_errors" flag to change this behaviour.
------------------------------------------------------------


------------------------------------------------------------
          Reading geometry description geometry.in.
------------------------------------------------------------
  Input structure read successfully.
  The structure contains       12 atoms,  and a total of        232.000 electrons.

  Input geometry:
  | Unit cell:
  |        5.41000000        0.00000000        0.00000000
  |        0.00000000        5.41000000        0.00000000
  |        0.00000000        0.00000000        5.41000000
  | Atomic structure:
  |       Atom                x [A]            y [A]            z [A]
  |    1: Species Fe            0.00000000        0.00000000        0.00000000
  |    2: Species Fe            0.00000000        2.70500000        2.70500000
  |    3: Species Fe            2.70500000        0.00000000        2.70500000
  |    4: Species Fe            2.70500000        2.70500000        0.00000000
  |    5: Species S             2.08826000        2.08826000        2.08826000
  |    6: Species S             3.32174000        3.32174000        3.32174000
  |    7: Species S             4.79326000        0.61674000        3.32174000
  |    8: Species S             0.61674000        4.79326000        2.08826000
  |    9: Species S             3.32174000        4.79326000        0.61674000
  |   10: Species S             2.08826000        0.61674000        4.79326000
  |   11: Species S             0.61674000        3.32174000        4.79326000
  |   12: Species S             4.79326000        2.08826000        0.61674000

  Lattice parameters for 3D lattice (in Angstroms) :     5.410000    5.410000    5.410000
  Angle(s) between unit vectors (in degrees)       :    90.000000   90.000000   90.000000

  | The smallest distance between any two atoms is         2.13645003 AA.
  | The first atom of this pair is atom number                      7 .
  | The second atom of this pair is atom number                     8 .
  | Wigner-Seitz cell of the first atom image           0     0     1 .
  | (The Wigner-Seitz cell of the second atom is 0 0 0  by definition.)

  Symmetry information by spglib:
  | Precision set to  0.1E-04
  | Number of Operations  : 24
  | Space group           : 205
  | International         : Pa3
  | Schoenflies           : Th^6

  Quantities derived from the lattice vectors:
  | Reciprocal lattice vector 1:  1.161402  0.000000  0.000000
  | Reciprocal lattice vector 2:  0.000000  1.161402  0.000000
  | Reciprocal lattice vector 3:  0.000000  0.000000  1.161402
  | Unit cell volume                               :   0.158340E+03  A^3

  Range separation radius for Ewald summation (hartree_convergence_parameter):      3.32337290 bohr.

  Fractional coordinates:
                         L1                L2                L3
       atom_frac         0.00000000        0.00000000        0.00000000  Fe
       atom_frac         0.00000000        0.50000000        0.50000000  Fe
       atom_frac         0.50000000        0.00000000        0.50000000  Fe
       atom_frac         0.50000000        0.50000000        0.00000000  Fe
       atom_frac         0.38600000        0.38600000        0.38600000  S
       atom_frac         0.61400000        0.61400000        0.61400000  S
       atom_frac         0.88600000        0.11400000        0.61400000  S
       atom_frac         0.11400000        0.88600000        0.38600000  S
       atom_frac         0.61400000        0.88600000        0.11400000  S
       atom_frac         0.38600000        0.11400000        0.88600000  S
       atom_frac         0.11400000        0.61400000        0.88600000  S
       atom_frac         0.88600000        0.38600000        0.11400000  S

  Number of empty states per atom not set in control.in - providing a guess from actual geometry.
  | Total number of empty states used during s.c.f. cycle:       46
  If you use a very high smearing, use empty_states (per atom!) in control.in to increase this value.

  Structure-dependent array size parameters: 
  | Maximum number of distinct radial functions  :       26
  | Maximum number of basis functions            :      560
  | Number of Kohn-Sham states (occupied + empty):      162
------------------------------------------------------------

------------------------------------------------------------
          Preparing all fixed parts of the calculation.
------------------------------------------------------------
  Determining machine precision:
    2.225073858507201E-308
  Setting up grids for atomic and cluster calculations.

  Creating wave function, potential, and density for free atoms.

  Species: Fe

  List of occupied orbitals and eigenvalues:
    n    l              occ      energy [Ha]    energy [eV]
    1    0           2.0000      -259.353480     -7057.3673
    2    0           2.0000       -30.157340      -820.6230
    3    0           2.0000        -3.452483       -93.9469
    4    0           2.0000        -0.192203        -5.2301
    2    1           6.0000       -25.691673      -699.1060
    3    1           6.0000        -2.203548       -59.9616
    3    2           6.0000        -0.273363        -7.4386


  Species: S

  List of occupied orbitals and eigenvalues:
    n    l              occ      energy [Ha]    energy [eV]
    1    0           2.0000       -88.680731     -2413.1255
    2    0           2.0000        -7.781719      -211.7513
    3    0           2.0000        -0.633662       -17.2428
    2    1           6.0000        -5.751976      -156.5192
    3    1           4.0000        -0.257086        -6.9957

  Creating fixed part of basis set: Ionic, confined, hydrogenic.
 
  Fe                   ion:

  List of free ionic orbitals and eigenvalues:
    n    l      energy [Ha]    energy [eV]
    1    0      -260.321188     -7083.6999
    2    0       -31.136355      -847.2633
    3    0        -4.393974      -119.5661
    4    0        -0.821894       -22.3649
    2    1       -26.668999      -725.7004
    3    1        -3.137384       -85.3726
    3    2        -1.170461       -31.8499


  List of ionic basis orbitals and eigenvalues:
    n    l      energy [Ha]    energy [eV]    outer radius [A]
    4    0        -0.821883       -22.3646       5.147246

 
  Fe                   hydrogenic:
 
  List of hydrogenic basis orbitals: 
    n    l      effective z      eigenvalue [eV]  inner max. [A]     outer max. [A]     outer radius [A]   
    4    3         9.400000       -75.1373           0.896093           0.896093           4.130556
    2    1         2.200000       -16.4620           0.964292           0.964292           5.339525
    5    4        12.400000       -83.6803           1.063365           1.063365           4.337560
    3    2         3.100000       -14.5091           1.534475           1.534475           5.471686
 
 
  S                    ion:

  List of free ionic orbitals and eigenvalues:
    n    l      energy [Ha]    energy [eV]
    1    0       -89.703778     -2440.9640
    2    0        -8.775428      -238.7916
    3    0        -1.470343       -40.0101
    2    1        -6.747660      -183.6132
    3    1        -1.048627       -28.5346


  List of ionic basis orbitals and eigenvalues:
    n    l      energy [Ha]    energy [eV]    outer radius [A]
    3    2        -0.495605       -13.4861       5.386362
    3    0        -1.470336       -40.0099       3.967934

 
  S                    hydrogenic:
 
  List of hydrogenic basis orbitals: 
    n    l      effective z      eigenvalue [eV]  inner max. [A]     outer max. [A]     outer radius [A]   
    2    1         1.800000       -11.0118           1.168531           1.168531           5.452614
    4    3         7.000000       -41.6672           1.212182           1.212182           5.066981
    4    2         6.200000       -32.6848           0.582121           1.814567           5.386362
    5    4        10.800000       -63.4785           1.227092           1.227092           4.766538
    4    1         4.900000       -20.2928           0.304525           2.524192           5.452614
    5    3        10.000000       -54.4226           0.641929           1.727969           5.320915
    1    0         0.800000        -8.7059           0.657818           0.657818           5.386362
 

  Adding cutoff potential to free-atom effective potential.
  Creating atomic-like basis functions for current effective potential.

  Species Fe                  :

  List of atomic basis orbitals and eigenvalues:
    n    l      energy [Ha]    energy [eV]    outer radius [A]
    1    0      -259.353480     -7057.3673       0.409790
    2    0       -30.157340      -820.6230       1.216422
    3    0        -3.452483       -93.9469       3.438507
    4    0        -0.192203        -5.2301       5.405201
    2    1       -25.691673      -699.1060       1.277383
    3    1        -2.203548       -59.9616       4.130556
    3    2        -0.273363        -7.4386       5.274647


  Species S                   :

  List of atomic basis orbitals and eigenvalues:
    n    l      energy [Ha]    energy [eV]    outer radius [A]
    1    0       -88.680731     -2413.1255       0.682391
    2    0        -7.781719      -211.7513       2.289014
    3    0        -0.633662       -17.2428       5.256262
    2    1        -5.751976      -156.5192       2.555240
    3    1        -0.257086        -6.9957       5.386362

  Assembling full basis from fixed parts.
  | Species Fe :   atomic orbital   1 s accepted.
  | Species Fe :   atomic orbital   2 s accepted.
  | Species Fe :   atomic orbital   3 s accepted.
  | Species Fe :    ionic orbital   4 s accepted.
  | Species Fe :   atomic orbital   4 s accepted.
  | Species Fe :   atomic orbital   2 p accepted.
  | Species Fe :   atomic orbital   3 p accepted.
  | Species Fe :    hydro orbital   2 p accepted.
  | Species Fe :   atomic orbital   3 d accepted.
  | Species Fe :    hydro orbital   3 d accepted.
  | Species Fe :    hydro orbital   4 f accepted.
  | Species Fe :    hydro orbital   5 g accepted.
  | Species S :   atomic orbital   1 s accepted.
  | Species S :   atomic orbital   2 s accepted.
  | Species S :    ionic orbital   3 s accepted.
  | Species S :   atomic orbital   3 s accepted.
  | Species S :    hydro orbital   1 s accepted.
  | Species S :   atomic orbital   2 p accepted.
  | Species S :   atomic orbital   3 p accepted.
  | Species S :    hydro orbital   2 p accepted.
  | Species S :    hydro orbital   4 p accepted.
  | Species S :    ionic orbital   3 d accepted.
  | Species S :    hydro orbital   4 d accepted.
  | Species S :    hydro orbital   4 f accepted.
  | Species S :    hydro orbital   5 f accepted.
  | Species S :    hydro orbital   5 g accepted.
 
  Basis size parameters after reduction:
  | Total number of radial functions:       26
  | Total number of basis functions :      560
 
  Per-task memory consumption for arrays in subroutine allocate_ext:
  |           9.312520MB.
  Testing on-site integration grid accuracy.
  |  Species  Function  <phi|h_atom|phi> (log., in eV)  <phi|h_atom|phi> (rad., in eV)
           1        1              -7057.3672738276              -7057.3670233885
           1        2               -820.6229743120               -820.6229693346
           1        3                -93.9468558734                -93.9468551618
           1        4                 -4.3493715055                 -4.3493701482
           1        5                  5.1663416017                  5.1666023769
           1        6               -699.1059947483               -699.1059936560
           1        7                -59.9615955940                -59.9615952176
           1        8                  2.0365546542                  2.0365588501
           1        9                 -7.4386109793                 -7.4386107000
           1       10                  6.8083858019                  6.8084481622
           1       11                 40.4274313517                 40.4274313256
           1       12                 61.0888547845                 61.0888548769
           2       13              -2413.1254568977              -2413.1254096663
           2       14               -211.7513411281               -211.7513404762
           2       15                -16.9725280787                -16.9725279206
           2       16                  7.6024436204                  7.6024549059
           2       17                 48.5754986812                 48.5751292874
           2       18               -156.5192206929               -156.5192205451
           2       19                 -6.9959757887                 -6.9959777655
           2       20                  6.8896462808                  6.8895564741
           2       21                 27.2255287135                 27.2252601701
           2       22                  6.0214250550                  6.0214220200
           2       23                 19.6206468977                 19.6206494558
           2       24                 24.7008710786                 24.7008710738
           2       25                 58.2239314521                 58.2239319465
           2       26                 47.5292252001                 47.5292260486

  Preparing densities etc. for the partition functions (integrals / Hartree potential).

  Preparations completed.
  max(cpu_time)          :      0.469 s.
  Wall clock time (cpu1) :      0.671 s.
------------------------------------------------------------

------------------------------------------------------------
          Begin self-consistency loop: Initialization.

          Date     :  20200320, Time     :  143713.171
------------------------------------------------------------

  Initializing index lists of integration centers etc. from given atomic structure:
  Mapping all atomic coordinates to central unit cell.

  Initializing the k-points
  Using symmetry for reducing the k-points
  | k-points reduced from:    24389 to    12195
  | Number of k-points                             :     12195
  The eigenvectors in the calculations are COMPLEX.
  | K-points in task   0:       508
  | K-points in task   1:       509
  | K-points in task   2:       509
  | K-points in task   3:       509
  | K-points in task   4:       508
  | K-points in task   5:       508
  | K-points in task   6:       508
  | K-points in task   7:       508
  | K-points in task   8:       508
  | K-points in task   9:       508
  | K-points in task  10:       508
  | K-points in task  11:       508
  | K-points in task  12:       508
  | K-points in task  13:       508
  | K-points in task  14:       508
  | K-points in task  15:       508
  | K-points in task  16:       508
  | K-points in task  17:       508
  | K-points in task  18:       508
  | K-points in task  19:       508
  | K-points in task  20:       508
  | K-points in task  21:       508
  | K-points in task  22:       508
  | K-points in task  23:       508
  | Number of basis functions in the Hamiltonian integrals :     10246
  | Number of basis functions in a single unit cell        :       560
  | Number of centers in hartree potential         :      1526
  | Number of centers in hartree multipole         :      1139
  | Number of centers in electron density summation:       816
  | Number of centers in basis integrals           :       902
  | Number of centers in integrals                 :       319
  | Number of centers in hamiltonian               :       819
  | Consuming      19054 KiB for k_phase.
  | Number of super-cells (origin) [n_cells]                     :         729
  | Number of super-cells (after PM_index) [n_cells]             :         100
  | Number of super-cells in hamiltonian [n_cells_in_hamiltonian]:         100
  | Size of matrix packed + index [n_hamiltonian_matrix_size] :     4215893
  | Estimated reciprocal-space cutoff momentum G_max:         2.97221604 bohr^-1 .
  | Reciprocal lattice points for long-range Hartree potential:     460
  Partitioning the integration grid into batches with parallel hashing+maxmin method.
  | Number of batches:     4096
  | Maximal batch size:      90
  | Minimal batch size:      57
  | Average batch size:      70.275
  | Standard deviation of batch sizes:       9.447

  Integration load balanced across    24 MPI tasks.
  Work distribution over tasks is as follows:
  Task     0 has      12007 integration points.
  Task     1 has      12015 integration points.
  Task     2 has      11964 integration points.
  Task     3 has      12004 integration points.
  Task     4 has      12003 integration points.
  Task     5 has      11960 integration points.
  Task     6 has      12007 integration points.
  Task     7 has      11979 integration points.
  Task     8 has      11990 integration points.
  Task     9 has      11963 integration points.
  Task    10 has      12021 integration points.
  Task    11 has      11985 integration points.
  Task    12 has      12025 integration points.
  Task    13 has      12003 integration points.
  Task    14 has      11969 integration points.
  Task    15 has      12013 integration points.
  Task    16 has      12006 integration points.
  Task    17 has      12000 integration points.
  Task    18 has      12019 integration points.
  Task    19 has      11971 integration points.
  Task    20 has      11990 integration points.
  Task    21 has      11997 integration points.
  Task    22 has      11977 integration points.
  Task    23 has      11980 integration points.
  Initializing partition tables, free-atom densities, potentials, etc. across the integration grid (initialize_grid_storage).
  | initialize_grid_storage: Actual outermost partition radius vs. multipole_radius_free
  | (-- VB: in principle, multipole_radius_free should be larger, hence this output)
  | Species        1: Confinement radius =              6.000000000000000 AA, multipole_radius_free =              6.033857822397225 AA.
  | Species        1: outer_partition_radius set to              6.033857822397225 AA .
  | Species        2: Confinement radius =              6.000000000000000 AA, multipole_radius_free =              6.012827091137924 AA.
  | Species        2: outer_partition_radius set to              6.012827091137924 AA .
  | The sparse table of interatomic distances needs       6387.30 kbyte instead of      6508.83 kbyte of memory.
  | Net number of integration points:   287848
  | of which are non-zero points    :   216784
  | Numerical average free-atom electrostatic potential    :    -20.67200870 eV
  Renormalizing the initial density to the exact electron count on the 3D integration grid.
  | Initial density: Formal number of electrons (from input files) :     232.0000000000
  | Integrated number of electrons on 3D grid     :     232.0007091141
  | Charge integration error                      :       0.0007091141
  | Normalization factor for density and gradient :       0.9999969435
  Renormalizing the free-atom superposition density to the exact electron count on the 3D integration grid.
  | Formal number of electrons (from input files) :     232.0000000000
  | Integrated number of electrons on 3D grid     :     232.0007091141
  | Charge integration error                      :       0.0007091141
  | Normalization factor for density and gradient :       0.9999969435
  Obtaining max. number of non-zero basis functions in each batch (get_n_compute_maxes).
  | Maximal number of non-zero basis functions:     2368 in task     0
  | Maximal number of non-zero basis functions:     2359 in task     1
  | Maximal number of non-zero basis functions:     2368 in task     2
  | Maximal number of non-zero basis functions:     2362 in task     3
  | Maximal number of non-zero basis functions:     2365 in task     4
  | Maximal number of non-zero basis functions:     2416 in task     5
  | Maximal number of non-zero basis functions:     2375 in task     6
  | Maximal number of non-zero basis functions:     2393 in task     7
  | Maximal number of non-zero basis functions:     2381 in task     8
  | Maximal number of non-zero basis functions:     2373 in task     9
  | Maximal number of non-zero basis functions:     2405 in task    10
  | Maximal number of non-zero basis functions:     2344 in task    11
  | Maximal number of non-zero basis functions:     2368 in task    12
  | Maximal number of non-zero basis functions:     2398 in task    13
  | Maximal number of non-zero basis functions:     2363 in task    14
  | Maximal number of non-zero basis functions:     2371 in task    15
  | Maximal number of non-zero basis functions:     2399 in task    16
  | Maximal number of non-zero basis functions:     2376 in task    17
  | Maximal number of non-zero basis functions:     2406 in task    18
  | Maximal number of non-zero basis functions:     2364 in task    19
  | Maximal number of non-zero basis functions:     2360 in task    20
  | Maximal number of non-zero basis functions:     2372 in task    21
  | Maximal number of non-zero basis functions:     2407 in task    22
  | Maximal number of non-zero basis functions:     2348 in task    23
  Allocating      703.213 MB for KS_eigenvector_complex
  Integrating Hamiltonian matrix: batch-based integration.
  Time summed over all CPUs for integration: real work      273.181 s, elapsed      276.541 s
  Integrating overlap matrix.
  Time summed over all CPUs for integration: real work      219.037 s, elapsed      221.874 s
  Decreasing sparse matrix size:
  | Tolerance:  0.1000E-12
  Hamiltonian matrix
  | Array has  3690960 nonzero elements out of  4215893 elements
  | Sparsity factor is 0.125
  Overlap matrix
  | Array has  3408976 nonzero elements out of  4215893 elements
  | Sparsity factor is 0.191
  New size of hamiltonian matrix:     3693125

  Updating Kohn-Sham eigenvalues and eigenvectors using ELSI and the (modified) LAPACK eigensolver.
  Singularity check in k-point 24, task 0 (analysis for other k-points/tasks may follow below):
  Overlap matrix is not singular
  | Lowest and highest eigenvalues :  0.6273E-04,  0.1412E+02
  Finished singularity check of overlap matrix
  | Time :     0.184 s
  Starting LAPACK eigensolver
  Finished Cholesky decomposition
  | Time :     0.033 s
  Finished transformation to standard eigenproblem
  | Time :     0.033 s
  Finished solving standard eigenproblem
  | Time :     0.108 s
  Finished back-transformation of eigenvectors
  | Time :     0.008 s

  Obtaining occupation numbers and chemical potential using ELSI.
  | Chemical potential (Fermi level):    -8.00633400 eV
  Writing Kohn-Sham eigenvalues.
  K-point:       1 at    0.000000    0.000000    0.000000 (in units of recip. lattice)

  State    Occupation    Eigenvalue [Ha]    Eigenvalue [eV]
      1       2.00000        -259.374333        -7057.93470
      2       2.00000        -259.374333        -7057.93470
      3       2.00000        -259.374333        -7057.93470
      4       2.00000        -259.374333        -7057.93470
      5       2.00000         -88.717310        -2414.12083
      6       2.00000         -88.717310        -2414.12083
      7       2.00000         -88.717310        -2414.12083
      8       2.00000         -88.717310        -2414.12083
      9       2.00000         -88.717310        -2414.12083
     10       2.00000         -88.717310        -2414.12083
     11       2.00000         -88.717310        -2414.12083
     12       2.00000         -88.717310        -2414.12083
     13       2.00000         -30.179197         -821.21772
     14       2.00000         -30.179197         -821.21772
     15       2.00000         -30.179197         -821.21772
     16       2.00000         -30.179197         -821.21772
     17       2.00000         -25.713377         -699.69660
     18       2.00000         -25.713377         -699.69660
     19       2.00000         -25.713377         -699.69660
     20       2.00000         -25.713377         -699.69660
     21       2.00000         -25.713377         -699.69660
     22       2.00000         -25.713377         -699.69660
     23       2.00000         -25.713377         -699.69660
     24       2.00000         -25.713377         -699.69660
     25       2.00000         -25.713297         -699.69440
     26       2.00000         -25.713297         -699.69440
     27       2.00000         -25.713297         -699.69440
     28       2.00000         -25.713297         -699.69440
     29       2.00000          -7.822374         -212.85763
     30       2.00000          -7.822374         -212.85763
     31       2.00000          -7.822374         -212.85763
     32       2.00000          -7.822374         -212.85763
     33       2.00000          -7.822351         -212.85700
     34       2.00000          -7.822351         -212.85700
     35       2.00000          -7.822351         -212.85700
     36       2.00000          -7.822351         -212.85700
     37       2.00000          -5.792409         -157.61947
     38       2.00000          -5.792409         -157.61947
     39       2.00000          -5.792409         -157.61947
     40       2.00000          -5.792409         -157.61947
     41       2.00000          -5.792409         -157.61947
     42       2.00000          -5.792409         -157.61946
     43       2.00000          -5.792409         -157.61946
     44       2.00000          -5.792409         -157.61946
     45       2.00000          -5.792398         -157.61918
     46       2.00000          -5.792398         -157.61918
     47       2.00000          -5.792398         -157.61918
     48       2.00000          -5.792398         -157.61917
     49       2.00000          -5.792398         -157.61917
     50       2.00000          -5.792398         -157.61917
     51       2.00000          -5.792398         -157.61917
     52       2.00000          -5.792398         -157.61917
     53       2.00000          -5.791895         -157.60547
     54       2.00000          -5.791895         -157.60547
     55       2.00000          -5.791895         -157.60547
     56       2.00000          -5.791895         -157.60547
     57       2.00000          -5.791739         -157.60124
     58       2.00000          -5.791739         -157.60124
     59       2.00000          -5.791739         -157.60124
     60       2.00000          -5.791739         -157.60124
     61       2.00000          -3.483667          -94.79540
     62       2.00000          -3.483660          -94.79521
     63       2.00000          -3.483660          -94.79521
     64       2.00000          -3.483660          -94.79521
     65       2.00000          -2.237898          -60.89630
     66       2.00000          -2.237898          -60.89630
     67       2.00000          -2.237898          -60.89630
     68       2.00000          -2.237833          -60.89453
     69       2.00000          -2.237833          -60.89453
     70       2.00000          -2.237807          -60.89384
     71       2.00000          -2.237807          -60.89384
     72       2.00000          -2.237807          -60.89384
     73       2.00000          -2.236304          -60.85291
     74       2.00000          -2.236285          -60.85241
     75       2.00000          -2.236285          -60.85241
     76       2.00000          -2.236285          -60.85241
     77       2.00000          -0.871435          -23.71296
     78       2.00000          -0.791348          -21.53368
     79       2.00000          -0.791348          -21.53368
     80       2.00000          -0.791348          -21.53368
     81       2.00000          -0.703514          -19.14358
     82       2.00000          -0.703514          -19.14358
     83       2.00000          -0.703514          -19.14358
     84       2.00000          -0.650816          -17.70960
     85       2.00000          -0.498262          -13.55841
     86       2.00000          -0.498262          -13.55841
     87       2.00000          -0.498262          -13.55841
     88       2.00000          -0.470790          -12.81084
     89       2.00000          -0.470790          -12.81084
     90       2.00000          -0.470790          -12.81084
     91       2.00000          -0.446233          -12.14263
     92       2.00000          -0.446233          -12.14263
     93       2.00000          -0.446233          -12.14263
     94       2.00000          -0.440041          -11.97411
     95       2.00000          -0.440041          -11.97411
     96       2.00000          -0.419969          -11.42794
     97       2.00000          -0.415412          -11.30394
     98       2.00000          -0.415412          -11.30394
     99       2.00000          -0.415412          -11.30394
    100       2.00000          -0.410770          -11.17761
    101       2.00000          -0.410770          -11.17761
    102       2.00000          -0.349236           -9.50320
    103       2.00000          -0.349236           -9.50320
    104       2.00000          -0.349236           -9.50320
    105       2.00000          -0.341056           -9.28060
    106       2.00000          -0.341056           -9.28060
    107       2.00000          -0.341056           -9.28060
    108       2.00000          -0.323212           -8.79505
    109       2.00000          -0.323212           -8.79505
    110       2.00000          -0.319643           -8.69792
    111       2.00000          -0.319643           -8.69792
    112       2.00000          -0.319643           -8.69792
    113       2.00000          -0.315173           -8.57630
    114       2.00000          -0.315173           -8.57630
    115       2.00000          -0.315173           -8.57630
    116       2.00000          -0.313377           -8.52742
    117       0.00000          -0.241164           -6.56242
    118       0.00000          -0.241164           -6.56242
    119       0.00000          -0.241164           -6.56242
    120       0.00000          -0.216674           -5.89601
    121       0.00000          -0.163212           -4.44122
    122       0.00000          -0.163212           -4.44122
    123       0.00000          -0.163212           -4.44122
    124       0.00000          -0.134286           -3.65411
    125       0.00000          -0.134286           -3.65411
    126       0.00000          -0.122533           -3.33429
    127       0.00000          -0.122533           -3.33429
    128       0.00000          -0.122533           -3.33429
    129       0.00000          -0.001027           -0.02795
    130       0.00000          -0.001027           -0.02795
    131       0.00000          -0.001027           -0.02795
    132       0.00000           0.038089            1.03644
    133       0.00000           0.061677            1.67831
    134       0.00000           0.061677            1.67831
    135       0.00000           0.061677            1.67831
    136       0.00000           0.070256            1.91177
    137       0.00000           0.070256            1.91177
    138       0.00000           0.070256            1.91177
    139       0.00000           0.071680            1.95052
    140       0.00000           0.071680            1.95052
    141       0.00000           0.084602            2.30213
    142       0.00000           0.084602            2.30213
    143       0.00000           0.084602            2.30213
    144       0.00000           0.143584            3.90713
    145       0.00000           0.143584            3.90713
    146       0.00000           0.143584            3.90713
    147       0.00000           0.149181            4.05941
    148       0.00000           0.177314            4.82496
    149       0.00000           0.177314            4.82496
    150       0.00000           0.177314            4.82496
    151       0.00000           0.223601            6.08450
    152       0.00000           0.223601            6.08450
    153       0.00000           0.239898            6.52796
    154       0.00000           0.239898            6.52796
    155       0.00000           0.239898            6.52796
    156       0.00000           0.244548            6.65449
    157       0.00000           0.244548            6.65449
    158       0.00000           0.262949            7.15520
    159       0.00000           0.308781            8.40235
    160       0.00000           0.308781            8.40235
    161       0.00000           0.308781            8.40235
    162       0.00000           0.361724            9.84300

  What follows are estimated values for band gap, HOMO, LUMO, etc.
  | They are estimated on a discrete k-point grid and not necessarily exact.
  | For converged numbers, create a DOS and/or band structure plot on a denser k-grid.

  Highest occupied state (VBM) at     -8.03792153 eV (relative to internal zero)
  | Occupation number:      1.99999207
  | K-point:    7373 at    0.413793    0.000000    0.586207 (in units of recip. lattice)

  Lowest unoccupied state (CBM) at    -6.72180495 eV (relative to internal zero)
  | Occupation number:      0.00000000
  | K-point:    8937 at    0.482759    0.482759    0.517241 (in units of recip. lattice)

  ESTIMATED overall HOMO-LUMO gap:      1.31611658 eV between HOMO at k-point 7373 and LUMO at k-point 8937
  | This appears to be an indirect band gap.
  | Smallest direct gap :      1.62871022 eV for k_point 11294 at    0.482759    0.482759    0.517241 (in units of recip. lattice)
  The gap value is above 0.2 eV. Unless you are using a very sparse k-point grid,
  this system is most likely an insulator or a semiconductor.
  Calculating total energy contributions from superposition of free atom densities.

  Total energy components:
  | Sum of eigenvalues            :       -4874.59645519 Ha     -132644.51842454 eV
  | XC energy correction          :        -429.62887850 Ha      -11690.79660527 eV
  | XC potential correction       :         556.59161676 Ha       15145.62849325 eV
  | Free-atom electrostatic energy:       -3561.77084594 Ha      -96920.71598980 eV
  | Hartree energy correction     :           0.00000000 Ha           0.00000000 eV
  | Entropy correction            :          -0.00000000 Ha          -0.00000000 eV
  | ---------------------------
  | Total energy                  :       -8309.40456287 Ha     -226110.40252635 eV
  | Total energy, T -> 0          :       -8309.40456287 Ha     -226110.40252635 eV  <-- do not rely on this value for anything but (periodic) metals
  | Electronic free energy        :       -8309.40456287 Ha     -226110.40252635 eV

  Derived energy quantities:
  | Kinetic energy                :        8384.59003767 Ha      228156.30339002 eV
  | Electrostatic energy          :      -16264.36572204 Ha     -442575.90931111 eV
  | Energy correction for multipole
  | error in Hartree potential    :           0.00000000 Ha           0.00000000 eV
  | Sum of eigenvalues per atom                           :      -11053.70986871 eV
  | Total energy (T->0) per atom                          :      -18842.53354386 eV  <-- do not rely on this value for anything but (periodic) metals
  | Electronic free energy per atom                       :      -18842.53354386 eV
  Initialize hartree_potential_storage
  Max. number of atoms included in rho_multipole:           12

  End scf initialization - timings             :  max(cpu_time)    wall_clock(cpu1)
  | Time for scf. initialization               :      179.628 s         179.941 s
  | Boundary condition initialization          :        0.351 s           0.363 s
  | Integration                                :       20.915 s          21.021 s
  | Solution of K.-S. eqns.                    :      155.113 s         155.250 s
  | Grid partitioning                          :        0.335 s           0.338 s
  | Preloading free-atom quantities on grid    :        0.022 s           0.023 s
  | Free-atom superposition energy             :        0.159 s           0.159 s
  | Total energy evaluation                    :        0.060 s           0.061 s

  Partial memory accounting:
  | Current value for overall tracked memory usage:
  |   Minimum:      773.654 MB (on task  0)
  |   Maximum:      775.039 MB (on task  1)
  |   Average:      773.827 MB
  | Peak value for overall tracked memory usage:
  |   Minimum:      830.426 MB (on task 11 after allocating wave)
  |   Maximum:      833.191 MB (on task  5 after allocating wave)
  |   Average:      831.848 MB
  | Largest tracked array allocation so far:
  |   Minimum:      703.213 MB (KS_eigenvector_complex on task  0)
  |   Maximum:      704.597 MB (KS_eigenvector_complex on task  1)
  |   Average:      703.386 MB
  Note:  These values currently only include a subset of arrays which are explicitly tracked.
  The "true" memory usage will be greater.
------------------------------------------------------------

------------------------------------------------------------
          Begin self-consistency iteration #    1

  Date     :  20200320, Time     :  144013.161
------------------------------------------------------------
  Evaluating new KS density using the density matrix
  Evaluating density matrix
  Time summed over all CPUs for getting density from density matrix: real work      551.420 s, elapsed      562.512 s
  Integration grid: deviation in total charge (<rho> - N_e) =  -4.564583E-09
  Pulay mixing of updated and previous charge densities.
  Renormalizing the density to the exact electron count on the 3D integration grid.
  | Formal number of electrons (from input files) :     232.0000000000
  | Integrated number of electrons on 3D grid     :     231.9995114252
  | Charge integration error                      :      -0.0004885748
  | Normalization factor for density and gradient :       1.0000021059

  Evaluating partitioned Hartree potential by multipole expansion.
  | Original multipole sum: apparent total charge =  -0.108365E-12
  | Sum of charges compensated after spline to logarithmic grids =   0.705834E-07
  | Analytical far-field extrapolation by fixed multipoles:
  | Hartree multipole sum: apparent total charge =  -0.108113E-12
  Summing up the Hartree potential.
  Time summed over all CPUs for potential: real work       29.116 s, elapsed       29.595 s
  | RMS charge density error from multipole expansion :   0.657679E-03
  | Average real-space part of the electrostatic potential :      0.02346686 eV

  Integrating Hamiltonian matrix: batch-based integration.
  Time summed over all CPUs for integration: real work      267.669 s, elapsed      270.834 s

  Updating Kohn-Sham eigenvalues and eigenvectors using ELSI and the (modified) LAPACK eigensolver.
  Starting LAPACK eigensolver
  Finished Cholesky decomposition
  | Time :     0.018 s
  Finished transformation to standard eigenproblem
  | Time :     0.036 s
  Finished solving standard eigenproblem
  | Time :     0.101 s
  Finished back-transformation of eigenvectors
  | Time :     0.009 s

  Obtaining occupation numbers and chemical potential using ELSI.
  | Chemical potential (Fermi level):    -7.83913853 eV
  Writing Kohn-Sham eigenvalues.
  K-point:       1 at    0.000000    0.000000    0.000000 (in units of recip. lattice)

  State    Occupation    Eigenvalue [Ha]    Eigenvalue [eV]
      1       2.00000        -259.346223        -7057.16979
      2       2.00000        -259.346223        -7057.16979
      3       2.00000        -259.346223        -7057.16979
      4       2.00000        -259.346223        -7057.16979
      5       2.00000         -88.723602        -2414.29204
      6       2.00000         -88.723602        -2414.29204
      7       2.00000         -88.723602        -2414.29204
      8       2.00000         -88.723602        -2414.29204
      9       2.00000         -88.723602        -2414.29204
     10       2.00000         -88.723602        -2414.29204
     11       2.00000         -88.723602        -2414.29204
     12       2.00000         -88.723602        -2414.29204
     13       2.00000         -30.152179         -820.48254
     14       2.00000         -30.152179         -820.48254
     15       2.00000         -30.152179         -820.48254
     16       2.00000         -30.152179         -820.48254
     17       2.00000         -25.686215         -698.95748
     18       2.00000         -25.686215         -698.95748
     19       2.00000         -25.686215         -698.95748
     20       2.00000         -25.686215         -698.95748
     21       2.00000         -25.686215         -698.95748
     22       2.00000         -25.686215         -698.95748
     23       2.00000         -25.686215         -698.95748
     24       2.00000         -25.686215         -698.95748
     25       2.00000         -25.685851         -698.94757
     26       2.00000         -25.685851         -698.94757
     27       2.00000         -25.685851         -698.94757
     28       2.00000         -25.685851         -698.94757
     29       2.00000          -7.827314         -212.99206
     30       2.00000          -7.827314         -212.99206
     31       2.00000          -7.827314         -212.99206
     32       2.00000          -7.827314         -212.99206
     33       2.00000          -7.827291         -212.99144
     34       2.00000          -7.827291         -212.99144
     35       2.00000          -7.827291         -212.99144
     36       2.00000          -7.827291         -212.99144
     37       2.00000          -5.797342         -157.75369
     38       2.00000          -5.797342         -157.75369
     39       2.00000          -5.797342         -157.75369
     40       2.00000          -5.797342         -157.75369
     41       2.00000          -5.797342         -157.75369
     42       2.00000          -5.797341         -157.75368
     43       2.00000          -5.797341         -157.75368
     44       2.00000          -5.797341         -157.75368
     45       2.00000          -5.797331         -157.75340
     46       2.00000          -5.797331         -157.75340
     47       2.00000          -5.797331         -157.75340
     48       2.00000          -5.797331         -157.75339
     49       2.00000          -5.797331         -157.75339
     50       2.00000          -5.797331         -157.75339
     51       2.00000          -5.797331         -157.75339
     52       2.00000          -5.797331         -157.75339
     53       2.00000          -5.797194         -157.74967
     54       2.00000          -5.797194         -157.74967
     55       2.00000          -5.797194         -157.74967
     56       2.00000          -5.797194         -157.74967
     57       2.00000          -5.797038         -157.74544
     58       2.00000          -5.797038         -157.74543
     59       2.00000          -5.797038         -157.74543
     60       2.00000          -5.797038         -157.74543
     61       2.00000          -3.464693          -94.27909
     62       2.00000          -3.464686          -94.27891
     63       2.00000          -3.464686          -94.27891
     64       2.00000          -3.464686          -94.27891
     65       2.00000          -2.219802          -60.40388
     66       2.00000          -2.219802          -60.40388
     67       2.00000          -2.219802          -60.40388
     68       2.00000          -2.219734          -60.40203
     69       2.00000          -2.219734          -60.40203
     70       2.00000          -2.219707          -60.40130
     71       2.00000          -2.219707          -60.40130
     72       2.00000          -2.219707          -60.40130
     73       2.00000          -2.217730          -60.34751
     74       2.00000          -2.217712          -60.34700
     75       2.00000          -2.217712          -60.34700
     76       2.00000          -2.217712          -60.34700
     77       2.00000          -0.873206          -23.76114
     78       2.00000          -0.793641          -21.59608
     79       2.00000          -0.793641          -21.59608
     80       2.00000          -0.793641          -21.59608
     81       2.00000          -0.704905          -19.18144
     82       2.00000          -0.704905          -19.18144
     83       2.00000          -0.704905          -19.18144
     84       2.00000          -0.652404          -17.75281
     85       2.00000          -0.497309          -13.53246
     86       2.00000          -0.497309          -13.53246
     87       2.00000          -0.497309          -13.53246
     88       2.00000          -0.471654          -12.83434
     89       2.00000          -0.471654          -12.83434
     90       2.00000          -0.471654          -12.83434
     91       2.00000          -0.444317          -12.09047
     92       2.00000          -0.444317          -12.09047
     93       2.00000          -0.444317          -12.09047
     94       2.00000          -0.440804          -11.99488
     95       2.00000          -0.440804          -11.99488
     96       2.00000          -0.422512          -11.49714
     97       2.00000          -0.410110          -11.15966
     98       2.00000          -0.410110          -11.15966
     99       2.00000          -0.410110          -11.15966
    100       2.00000          -0.402877          -10.96283
    101       2.00000          -0.402877          -10.96283
    102       2.00000          -0.350443           -9.53603
    103       2.00000          -0.350443           -9.53603
    104       2.00000          -0.350443           -9.53603
    105       2.00000          -0.328085           -8.92765
    106       2.00000          -0.328085           -8.92765
    107       2.00000          -0.328085           -8.92765
    108       2.00000          -0.308650           -8.39881
    109       2.00000          -0.308650           -8.39881
    110       2.00000          -0.304885           -8.29633
    111       2.00000          -0.304885           -8.29633
    112       2.00000          -0.304885           -8.29633
    113       2.00000          -0.301506           -8.20438
    114       2.00000          -0.301506           -8.20438
    115       2.00000          -0.301506           -8.20438
    116       2.00000          -0.298320           -8.11770
    117       0.00000          -0.228282           -6.21188
    118       0.00000          -0.228282           -6.21188
    119       0.00000          -0.228282           -6.21188
    120       0.00000          -0.218904           -5.95669
    121       0.00000          -0.154728           -4.21037
    122       0.00000          -0.154728           -4.21037
    123       0.00000          -0.154728           -4.21037
    124       0.00000          -0.127715           -3.47529
    125       0.00000          -0.127715           -3.47529
    126       0.00000          -0.125120           -3.40468
    127       0.00000          -0.125120           -3.40468
    128       0.00000          -0.125120           -3.40468
    129       0.00000          -0.001175           -0.03196
    130       0.00000          -0.001175           -0.03196
    131       0.00000          -0.001175           -0.03196
    132       0.00000           0.039341            1.07053
    133       0.00000           0.061732            1.67981
    134       0.00000           0.061732            1.67981
    135       0.00000           0.061732            1.67981
    136       0.00000           0.070376            1.91502
    137       0.00000           0.070376            1.91502
    138       0.00000           0.071252            1.93885
    139       0.00000           0.071252            1.93885
    140       0.00000           0.071252            1.93885
    141       0.00000           0.086744            2.36042
    142       0.00000           0.086744            2.36042
    143       0.00000           0.086744            2.36042
    144       0.00000           0.142670            3.88224
    145       0.00000           0.142670            3.88224
    146       0.00000           0.142670            3.88224
    147       0.00000           0.149185            4.05953
    148       0.00000           0.177743            4.83664
    149       0.00000           0.177743            4.83664
    150       0.00000           0.177743            4.83664
    151       0.00000           0.223857            6.09146
    152       0.00000           0.223857            6.09146
    153       0.00000           0.239008            6.50375
    154       0.00000           0.239008            6.50375
    155       0.00000           0.239008            6.50375
    156       0.00000           0.245026            6.66750
    157       0.00000           0.245026            6.66750
    158       0.00000           0.261859            7.12554
    159       0.00000           0.308265            8.38832
    160       0.00000           0.308265            8.38832
    161       0.00000           0.308265            8.38832
    162       0.00000           0.362507            9.86432

  What follows are estimated values for band gap, HOMO, LUMO, etc.
  | They are estimated on a discrete k-point grid and not necessarily exact.
  | For converged numbers, create a DOS and/or band structure plot on a denser k-grid.

  Highest occupied state (VBM) at     -7.87230167 eV (relative to internal zero)
  | Occupation number:      1.99999727
  | K-point:    8004 at    0.448276    0.000000    0.586207 (in units of recip. lattice)

  Lowest unoccupied state (CBM) at    -6.37010079 eV (relative to internal zero)
  | Occupation number:      0.00000000
  | K-point:    8936 at    0.482759    0.482759    0.482759 (in units of recip. lattice)

  ESTIMATED overall HOMO-LUMO gap:      1.50220088 eV between HOMO at k-point 8004 and LUMO at k-point 8936
  | This appears to be an indirect band gap.
  | Smallest direct gap :      1.62129480 eV for k_point 192 at    0.482759    0.482759    0.482759 (in units of recip. lattice)
  The gap value is above 0.2 eV. Unless you are using a very sparse k-point grid,
  this system is most likely an insulator or a semiconductor.

  Total energy components:
  | Sum of eigenvalues            :       -4872.97285343 Ha     -132600.33797263 eV
  | XC energy correction          :        -429.70205379 Ha      -11692.78780605 eV
  | XC potential correction       :         556.68766326 Ha       15148.24205129 eV
  | Free-atom electrostatic energy:       -3561.77084594 Ha      -96920.71598980 eV
  | Hartree energy correction     :          -1.58385217 Ha         -43.09881043 eV
  | Entropy correction            :          -0.00000000 Ha          -0.00000000 eV
  | ---------------------------
  | Total energy                  :       -8309.34194207 Ha     -226108.69852761 eV
  | Total energy, T -> 0          :       -8309.34194207 Ha     -226108.69852761 eV  <-- do not rely on this value for anything but (periodic) metals
  | Electronic free energy        :       -8309.34194207 Ha     -226108.69852761 eV

  Derived energy quantities:
  | Kinetic energy                :        8385.18166426 Ha      228172.40236841 eV
  | Electrostatic energy          :      -16264.82155254 Ha     -442588.31308997 eV
  | Energy correction for multipole
  | error in Hartree potential    :           0.00026807 Ha           0.00729458 eV
  | Sum of eigenvalues per atom                           :      -11050.02816439 eV
  | Total energy (T->0) per atom                          :      -18842.39154397 eV  <-- do not rely on this value for anything but (periodic) metals
  | Electronic free energy per atom                       :      -18842.39154397 eV

  Self-consistency convergence accuracy:
  | Change of charge density      :  0.8524E+00
  | Change of sum of eigenvalues  :  0.4418E+02 eV
  | Change of total energy        :  0.1704E+01 eV

  End self-consistency iteration #     1       :  max(cpu_time)    wall_clock(cpu1)
  | Time for this iteration                    :      175.101 s         175.111 s
  | Charge density update                      :       41.032 s          41.034 s
  | Density mixing & preconditioning           :        0.696 s           0.697 s
  | Hartree multipole update                   :        0.004 s           0.003 s
  | Hartree multipole summation                :        1.246 s           1.246 s
  | Integration                                :       11.405 s          11.406 s
[...]
      1       2.00000        -259.330070        -7056.73025
      2       2.00000        -259.330070        -7056.73025
      3       2.00000        -259.330070        -7056.73025
      4       2.00000        -259.330070        -7056.73025
      5       2.00000         -88.745896        -2414.89869
      6       2.00000         -88.745896        -2414.89869
      7       2.00000         -88.745896        -2414.89869
      8       2.00000         -88.745896        -2414.89869
      9       2.00000         -88.745896        -2414.89869
     10       2.00000         -88.745896        -2414.89869
     11       2.00000         -88.745896        -2414.89869
     12       2.00000         -88.745896        -2414.89869
     13       2.00000         -30.135685         -820.03371
     14       2.00000         -30.135685         -820.03371
     15       2.00000         -30.135685         -820.03371
     16       2.00000         -30.135685         -820.03370
     17       2.00000         -25.671613         -698.56014
     18       2.00000         -25.671613         -698.56014
     19       2.00000         -25.671613         -698.56014
     20       2.00000         -25.671613         -698.56014
     21       2.00000         -25.671613         -698.56014
     22       2.00000         -25.671613         -698.56014
     23       2.00000         -25.671613         -698.56013
     24       2.00000         -25.671613         -698.56013
     25       2.00000         -25.666967         -698.43370
     26       2.00000         -25.666967         -698.43370
     27       2.00000         -25.666967         -698.43370
     28       2.00000         -25.666967         -698.43370
     29       2.00000          -7.847274         -213.53518
     30       2.00000          -7.847274         -213.53518
     31       2.00000          -7.847274         -213.53518
     32       2.00000          -7.847274         -213.53518
     33       2.00000          -7.847251         -213.53456
     34       2.00000          -7.847251         -213.53456
     35       2.00000          -7.847251         -213.53456
     36       2.00000          -7.847251         -213.53456
     37       2.00000          -5.821199         -158.40289
     38       2.00000          -5.821199         -158.40289
     39       2.00000          -5.821199         -158.40289
     40       2.00000          -5.821199         -158.40289
     41       2.00000          -5.821044         -158.39867
     42       2.00000          -5.821044         -158.39867
     43       2.00000          -5.821044         -158.39867
     44       2.00000          -5.821044         -158.39867
     45       2.00000          -5.815487         -158.24746
     46       2.00000          -5.815487         -158.24746
     47       2.00000          -5.815487         -158.24746
     48       2.00000          -5.815487         -158.24746
     49       2.00000          -5.815487         -158.24746
     50       2.00000          -5.815487         -158.24745
     51       2.00000          -5.815487         -158.24745
     52       2.00000          -5.815487         -158.24745
     53       2.00000          -5.815476         -158.24716
     54       2.00000          -5.815476         -158.24716
     55       2.00000          -5.815476         -158.24716
     56       2.00000          -5.815476         -158.24715
     57       2.00000          -5.815476         -158.24715
     58       2.00000          -5.815476         -158.24715
     59       2.00000          -5.815476         -158.24715
     60       2.00000          -5.815476         -158.24715
     61       2.00000          -3.424656          -93.18964
     62       2.00000          -3.424648          -93.18942
     63       2.00000          -3.424648          -93.18942
     64       2.00000          -3.424648          -93.18942
     65       2.00000          -2.181687          -59.36671
     66       2.00000          -2.181687          -59.36671
     67       2.00000          -2.181687          -59.36671
     68       2.00000          -2.181614          -59.36474
     69       2.00000          -2.181614          -59.36474
     70       2.00000          -2.181585          -59.36395
     71       2.00000          -2.181585          -59.36395
     72       2.00000          -2.181585          -59.36395
     73       2.00000          -2.172419          -59.11453
     74       2.00000          -2.172400          -59.11400
     75       2.00000          -2.172400          -59.11400
     76       2.00000          -2.172399          -59.11400
     77       2.00000          -0.879474          -23.93171
     78       2.00000          -0.803193          -21.85600
     79       2.00000          -0.803193          -21.85600
     80       2.00000          -0.803193          -21.85600
     81       2.00000          -0.707631          -19.25561
     82       2.00000          -0.707630          -19.25561
     83       2.00000          -0.707630          -19.25561
     84       2.00000          -0.655138          -17.82721
     85       2.00000          -0.498524          -13.56552
     86       2.00000          -0.498524          -13.56552
     87       2.00000          -0.498524          -13.56552
     88       2.00000          -0.472315          -12.85234
     89       2.00000          -0.472315          -12.85234
     90       2.00000          -0.472315          -12.85234
     91       2.00000          -0.440954          -11.99897
     92       2.00000          -0.440954          -11.99897
     93       2.00000          -0.436718          -11.88370
     94       2.00000          -0.435608          -11.85349
     95       2.00000          -0.435608          -11.85349
     96       2.00000          -0.435608          -11.85349
     97       2.00000          -0.394373          -10.73145
     98       2.00000          -0.394373          -10.73145
     99       2.00000          -0.394373          -10.73145
    100       2.00000          -0.380777          -10.36146
    101       2.00000          -0.380777          -10.36146
    102       2.00000          -0.352277           -9.58594
    103       2.00000          -0.352277           -9.58594
    104       2.00000          -0.352277           -9.58594
    105       2.00000          -0.294086           -8.00249
    106       2.00000          -0.294086           -8.00249
    107       2.00000          -0.294086           -8.00249
    108       2.00000          -0.272906           -7.42614
    109       2.00000          -0.272906           -7.42614
    110       2.00000          -0.268423           -7.30417
    111       2.00000          -0.268423           -7.30417
    112       2.00000          -0.268423           -7.30417
    113       2.00000          -0.267411           -7.27662
    114       2.00000          -0.267411           -7.27662
    115       2.00000          -0.267411           -7.27662
    116       2.00000          -0.257848           -7.01641
    117       0.00000          -0.230360           -6.26840
    118       0.00000          -0.198465           -5.40050
    119       0.00000          -0.198465           -5.40050
    120       0.00000          -0.198465           -5.40050
    121       0.00000          -0.136706           -3.71995
    122       0.00000          -0.136706           -3.71995
    123       0.00000          -0.136706           -3.71995
    124       0.00000          -0.133587           -3.63509
    125       0.00000          -0.133587           -3.63509
    126       0.00000          -0.133587           -3.63509
    127       0.00000          -0.111611           -3.03710
    128       0.00000          -0.111611           -3.03710
    129       0.00000          -0.000720           -0.01959
    130       0.00000          -0.000720           -0.01959
    131       0.00000          -0.000720           -0.01959
    132       0.00000           0.045139            1.22828
    133       0.00000           0.065644            1.78627
    134       0.00000           0.065644            1.78627
    135       0.00000           0.065886            1.79284
    136       0.00000           0.065886            1.79284
    137       0.00000           0.065886            1.79284
    138       0.00000           0.075286            2.04865
    139       0.00000           0.075286            2.04865
    140       0.00000           0.075286            2.04865
    141       0.00000           0.091200            2.48168
    142       0.00000           0.091200            2.48168
    143       0.00000           0.091200            2.48168
    144       0.00000           0.139313            3.79091
    145       0.00000           0.139313            3.79091
    146       0.00000           0.139313            3.79091
    147       0.00000           0.149556            4.06962
    148       0.00000           0.176183            4.79418
    149       0.00000           0.176183            4.79418
    150       0.00000           0.176183            4.79418
    151       0.00000           0.229974            6.25791
    152       0.00000           0.229974            6.25791
    153       0.00000           0.239852            6.52670
    154       0.00000           0.239852            6.52670
    155       0.00000           0.239852            6.52670
    156       0.00000           0.244309            6.64798
    157       0.00000           0.244309            6.64798
    158       0.00000           0.258947            7.04632
    159       0.00000           0.304997            8.29940
    160       0.00000           0.304997            8.29940
    161       0.00000           0.304997            8.29940
    162       0.00000           0.363473            9.89059

  What follows are estimated values for band gap, HOMO, LUMO, etc.
  | They are estimated on a discrete k-point grid and not necessarily exact.
  | For converged numbers, create a DOS and/or band structure plot on a denser k-grid.

  Highest occupied state (VBM) at     -6.97829827 eV (relative to internal zero)
  | Occupation number:      1.99999935
  | K-point:    3724 at    0.206897    0.206897    0.827586 (in units of recip. lattice)

  Lowest unoccupied state (CBM) at    -6.26840257 eV (relative to internal zero)
  | Occupation number:      0.00000000
  | K-point:       1 at    0.000000    0.000000    0.000000 (in units of recip. lattice)

  ESTIMATED overall HOMO-LUMO gap:      0.70989571 eV between HOMO at k-point 3724 and LUMO at k-point 1
  | This appears to be an indirect band gap.
  | Smallest direct gap :      0.74800758 eV for k_point 1 at    0.000000    0.000000    0.000000 (in units of recip. lattice)
  The gap value is above 0.2 eV. Unless you are using a very sparse k-point grid,
  this system is most likely an insulator or a semiconductor.

  Self-consistency cycle converged.

  End self-consistency iteration #    21       :  max(cpu_time)    wall_clock(cpu1)
  | Time for this iteration                    :      173.835 s         173.859 s
  | Charge density update                      :       40.914 s          40.917 s
  | Density mixing                             :        0.693 s           0.693 s
  | Hartree multipole update                   :        0.004 s           0.004 s
  | Hartree multipole summation                :        1.414 s           1.414 s
  | Integration                                :       11.499 s          11.500 s
  | Solution of K.-S. eqns.                    :      119.218 s         119.248 s
  | Total energy evaluation                    :        0.059 s           0.059 s

  Partial memory accounting:
  | Current value for overall tracked memory usage:
  |   Minimum:      773.655 MB (on task  0)
  |   Maximum:      775.039 MB (on task  1)
  |   Average:      773.828 MB
  | Peak value for overall tracked memory usage:
  |   Minimum:      830.426 MB (on task 11 after allocating wave)
  |   Maximum:      833.191 MB (on task  5 after allocating wave)
  |   Average:      831.848 MB
  | Largest tracked array allocation so far:
  |   Minimum:      703.213 MB (KS_eigenvector_complex on task  0)
  |   Maximum:      704.597 MB (KS_eigenvector_complex on task  1)
  |   Average:      703.386 MB
  Note:  These values currently only include a subset of arrays which are explicitly tracked.
  The "true" memory usage will be greater.
------------------------------------------------------------

  Energy and forces in a compact form:
  | Total energy uncorrected      :         -0.226105972513145E+06 eV
  | Total energy corrected        :         -0.226105972513145E+06 eV  <-- do not rely on this value for anything but (periodic) metals
  | Electronic free energy        :         -0.226105972513145E+06 eV

  ------------------------------------ 
  Start decomposition of the XC Energy 
  ------------------------------------ 
  X and C from original XC functional choice 
  Hartree-Fock Energy :          0.000000000 Ha              0.000000000 eV
  X Energy            :       -419.628891152 Ha         -11418.683104438 eV
  C Energy            :        -10.090891935 Ha           -274.587140392 eV
  Total XC Energy     :       -429.719783087 Ha         -11693.270244830 eV
  ------------------------------------ 
  LDA X and C from self-consistent density 
  X Energy LDA        :       -392.313238770 Ha         -10675.386384608 eV
  C Energy LDA        :        -18.961728729 Ha           -515.974891238 eV
  ------------------------------------ 
  End decomposition of the XC Energy 
  ------------------------------------ 

------------------------------------------------------------

------------------------------------------------------------------------------
  Final output of selected total energy values:

  The following output summarizes some interesting total energy values
  at the end of a run (AFTER all relaxation, molecular dynamics, etc.).

  | Total energy of the DFT / Hartree-Fock s.c.f. calculation      :        -226105.972513145 eV
  | Final zero-broadening corrected energy (caution - metals only) :        -226105.972513145 eV
  | For reference only, the value of 1 Hartree used in FHI-aims is :             27.211384500 eV
  | For reference only, the overall average (free atom contribution
  | + realspace contribution) of the electrostatic potential after
  | s.c.f. convergence is                                          :            -20.473625090 eV

  Before relying on these values, please be sure to understand exactly which
  total energy value is referred to by a given number. Different objects may
  all carry the same name 'total energy'. Definitions:

  Total energy of the DFT / Hartree-Fock s.c.f. calculation:
  | Note that this energy does not include ANY quantities calculated after the
  | s.c.f. cycle, in particular not ANY RPA, MP2, etc. many-body perturbation terms.

  Final zero-broadening corrected energy:
  | For metallic systems only, a broadening of the occupation numbers at the Fermi
  | level can be extrapolated back to zero broadening by an electron-gas inspired
  | formula. For all systems that are not real metals, this value can be
  | meaningless and should be avoided.

------------------------------------------------------------------------------
  Methods described in the following list of references were used in this FHI-aims run.
  If you publish the results, please make sure to cite these reference if they apply.
  FHI-aims is an academic code, and for our developers (often, Ph.D. students
  and postdocs), scientific credit in the community is essential.
  Thank you for helping us!

  For any use of FHI-aims, please cite:

    Volker Blum, Ralf Gehrke, Felix Hanke, Paula Havu, Ville Havu,
    Xinguo Ren, Karsten Reuter, and Matthias Scheffler
    'Ab initio molecular simulations with numeric atom-centered orbitals'
    Computer Physics Communications 180, 2175-2196 (2009)
    http://dx.doi.org/10.1016/j.cpc.2009.06.022


  The provided symmetry information was generated with SPGlib:

    Atsushi Togo, Yusuke Seto, Dimitar Pashov
    SPGlib 1.7.3 obtained from http://spglib.sourceforge.net
    Copyright (C) 2008 Atsushi Togo


  The ELSI infrastructure was used in your run to solve the Kohn-Sham electronic structure.
  Please check out http://elsi-interchange.org to learn more.
  If scalability is important for your project, please acknowledge ELSI by citing:

    V. W-z. Yu, F. Corsetti, A. Garcia, W. P. Huhn, M. Jacquelin, W. Jia,
    B. Lange, L. Lin, J. Lu, W. Mi, A. Seifitokaldani, A. Vazquez-Mayagoitia,
    C. Yang, H. Yang, and V. Blum
    'ELSI: A unified software interface for Kohn-Sham electronic structure solvers'
    Computer Physics Communications 222, 267-285 (2018).
    http://dx.doi.org/10.1016/j.cpc.2017.09.007


  For the real-space grid partitioning and parallelization used in this calculation, please cite:

    Ville Havu, Volker Blum, Paula Havu, and Matthias Scheffler,
    'Efficient O(N) integration for all-electron electronic structure calculation'
    'using numerically tabulated basis functions'
    Journal of Computational Physics 228, 8367-8379 (2009).
    http://dx.doi.org/10.1016/j.jcp.2009.08.008

  Of course, there are many other important community references, e.g., those cited in the
  above references. Our list is limited to references that describe implementations in the
  FHI-aims code. The reason is purely practical (length of this list) - please credit others as well.

------------------------------------------------------------
          Leaving FHI-aims.
          Date     :  20200320, Time     :  154058.607

          Computational steps:
          | Number of self-consistency cycles          :           21
          | Number of SCF (re)initializations          :            1

          Detailed time accounting                     :  max(cpu_time)    wall_clock(cpu1)
          | Total time                                 :     3824.827 s        3827.222 s
          | Preparation time                           :        0.469 s           0.671 s
          | Boundary condition initalization           :        0.351 s           0.363 s
          | Grid partitioning                          :        0.335 s           0.338 s
          | Preloading free-atom quantities on grid    :        0.022 s           0.023 s
          | Free-atom superposition energy             :        0.159 s           0.159 s
          | Total time for integrations                :      261.930 s         262.045 s
          | Total time for solution of K.-S. equations :     2651.785 s        2652.709 s
          | Total time for density update              :      859.919 s         859.974 s
          | Total time for mixing & preconditioning    :       14.986 s          14.989 s
          | Total time for Hartree multipole update    :        0.074 s           0.078 s
          | Total time for Hartree multipole sum       :       29.884 s          29.884 s
          | Total time for total energy evaluation     :        1.294 s           1.289 s
          | Total time for scaled ZORA corrections     :        0.000 s           0.000 s

          Partial memory accounting:
          | Residual value for overall tracked memory usage across tasks:     0.000000 MB (should be 0.000000 MB)
          | Peak values for overall tracked memory usage:
          |   Minimum:      830.426 MB (on task 11 after allocating wave)
          |   Maximum:      833.191 MB (on task  5 after allocating wave)
          |   Average:      831.848 MB
          | Largest tracked array allocation:
          |   Minimum:      703.213 MB (KS_eigenvector_complex on task  0)
          |   Maximum:      704.597 MB (KS_eigenvector_complex on task  1)
          |   Average:      703.386 MB
          Note:  These values currently only include a subset of arrays which are explicitly tracked.
          The "true" memory usage will be greater.

          Have a nice day.
------------------------------------------------------------
