------------------------------------------------------------
          Invoking FHI-aims ...

          When using FHI-aims, please cite the following reference:

          Volker Blum, Ralf Gehrke, Felix Hanke, Paula Havu,
          Ville Havu, Xinguo Ren, Karsten Reuter, and Matthias Scheffler,
          'Ab Initio Molecular Simulations with Numeric Atom-Centered Orbitals',
          Computer Physics Communications 180, 2175-2196 (2009)

          For any questions about FHI-aims, please visit the aimsclub website
          with its forums and wiki. Contributions to both the forums and the
          wiki are warmly encouraged - they are for you, and everyone is welcome there.

------------------------------------------------------------



  Date     :  20200319, Time     :  194115.530
  Time zero on CPU 1             :   0.109963000000000E+00  s.
  Internal wall clock time zero  :           353878875.530  s.

  FHI-aims created a unique identifier for this run for later identification
  aims_uuid : C2EF075D-F03D-4151-A3A0-28407CF92702

  Build configuration of the current instance of FHI-aims
  -------------------------------------------------------
  FHI-aims version      : 200112
  Commit number         : 23daeca3f
  CMake host system     : Linux-3.10.0-693.21.1.el7.x86_64
  CMake version         : 3.13.3
  Fortran compiler      : /sw/installed/impi/2018.4.274-iccifort-2019.1.144-GCC-8.2.0-2.31.1/bin64/mpiifort (Intel) version 19.0.0.20181018
  Fortran compiler flags: -O3 -ip -fp-model precise
  C compiler            : /sw/installed/impi/2018.4.274-iccifort-2019.1.144-GCC-8.2.0-2.31.1/bin64/mpiicc (Intel) version 19.0.0.20181018
  C compiler flags      : -O3 -ip -fp-model precise
  Architecture          :
  Using MPI
  Using Scalapack
  Using C files
  Using LibXC
  Using SPGlib
  Using i-PI
  Using RLSY
  Linking against: /sw/installed/imkl/2019.1.144-iimpi-2019a/mkl/lib/intel64/libmkl_intel_lp64.so
                   /sw/installed/imkl/2019.1.144-iimpi-2019a/mkl/lib/intel64/libmkl_sequential.so
                   /sw/installed/imkl/2019.1.144-iimpi-2019a/mkl/lib/intel64/libmkl_core.so
                   /sw/installed/imkl/2019.1.144-iimpi-2019a/mkl/lib/intel64/libmkl_blacs_intelmpi_lp64.so
                   /sw/installed/imkl/2019.1.144-iimpi-2019a/mkl/lib/intel64/libmkl_scalapack_lp64.so

  Using       24 parallel tasks.
  Task        0 on host taurusi6433.taurus.hrsk.tu-dresden.de reporting.
  Task        1 on host taurusi6433.taurus.hrsk.tu-dresden.de reporting.
  Task        2 on host taurusi6433.taurus.hrsk.tu-dresden.de reporting.
  Task        3 on host taurusi6433.taurus.hrsk.tu-dresden.de reporting.
  Task        4 on host taurusi6433.taurus.hrsk.tu-dresden.de reporting.
  Task        5 on host taurusi6433.taurus.hrsk.tu-dresden.de reporting.
  Task        6 on host taurusi6433.taurus.hrsk.tu-dresden.de reporting.
  Task        7 on host taurusi6433.taurus.hrsk.tu-dresden.de reporting.
  Task        8 on host taurusi6433.taurus.hrsk.tu-dresden.de reporting.
  Task        9 on host taurusi6433.taurus.hrsk.tu-dresden.de reporting.
  Task       10 on host taurusi6433.taurus.hrsk.tu-dresden.de reporting.
  Task       11 on host taurusi6433.taurus.hrsk.tu-dresden.de reporting.
  Task       12 on host taurusi6433.taurus.hrsk.tu-dresden.de reporting.
  Task       13 on host taurusi6433.taurus.hrsk.tu-dresden.de reporting.
  Task       14 on host taurusi6433.taurus.hrsk.tu-dresden.de reporting.
  Task       15 on host taurusi6433.taurus.hrsk.tu-dresden.de reporting.
  Task       16 on host taurusi6433.taurus.hrsk.tu-dresden.de reporting.
  Task       17 on host taurusi6433.taurus.hrsk.tu-dresden.de reporting.
  Task       18 on host taurusi6433.taurus.hrsk.tu-dresden.de reporting.
  Task       19 on host taurusi6433.taurus.hrsk.tu-dresden.de reporting.
  Task       20 on host taurusi6433.taurus.hrsk.tu-dresden.de reporting.
  Task       21 on host taurusi6433.taurus.hrsk.tu-dresden.de reporting.
  Task       22 on host taurusi6433.taurus.hrsk.tu-dresden.de reporting.
  Task       23 on host taurusi6433.taurus.hrsk.tu-dresden.de reporting.

  Performing system and environment tests:
  | Environment variable OMP_NUM_THREADS correctly set to 1.
  | Maximum stacksize for task 0: unlimited
  | Maximum stacksize for task 1: unlimited
  | Maximum stacksize for task 2: unlimited
  | Maximum stacksize for task 3: unlimited
  | Maximum stacksize for task 4: unlimited
  | Maximum stacksize for task 5: unlimited
  | Maximum stacksize for task 6: unlimited
  | Maximum stacksize for task 7: unlimited
  | Maximum stacksize for task 8: unlimited
  | Maximum stacksize for task 9: unlimited
  | Maximum stacksize for task 10: unlimited
  | Maximum stacksize for task 11: unlimited
  | Maximum stacksize for task 12: unlimited
  | Maximum stacksize for task 13: unlimited
  | Maximum stacksize for task 14: unlimited
  | Maximum stacksize for task 15: unlimited
  | Maximum stacksize for task 16: unlimited
  | Maximum stacksize for task 17: unlimited
  | Maximum stacksize for task 18: unlimited
  | Maximum stacksize for task 19: unlimited
  | Maximum stacksize for task 20: unlimited
  | Maximum stacksize for task 21: unlimited
  | Maximum stacksize for task 22: unlimited
  | Maximum stacksize for task 23: unlimited
  | Current stacksize for task 0: unlimited
  | Current stacksize for task 1: unlimited
  | Current stacksize for task 2: unlimited
  | Current stacksize for task 3: unlimited
  | Current stacksize for task 4: unlimited
  | Current stacksize for task 5: unlimited
  | Current stacksize for task 6: unlimited
  | Current stacksize for task 7: unlimited
  | Current stacksize for task 8: unlimited
  | Current stacksize for task 9: unlimited
  | Current stacksize for task 10: unlimited
  | Current stacksize for task 11: unlimited
  | Current stacksize for task 12: unlimited
  | Current stacksize for task 13: unlimited
  | Current stacksize for task 14: unlimited
  | Current stacksize for task 15: unlimited
  | Current stacksize for task 16: unlimited
  | Current stacksize for task 17: unlimited
  | Current stacksize for task 18: unlimited
  | Current stacksize for task 19: unlimited
  | Current stacksize for task 20: unlimited
  | Current stacksize for task 21: unlimited
  | Current stacksize for task 22: unlimited
  | Current stacksize for task 23: unlimited
  | Checking for scalapack...
  | Testing pdtran()...
  | All pdtran() tests passed.

  Obtaining array dimensions for all initial allocations:
  
  -----------------------------------------------------------------------
  Parsing control.in (first pass over file, find array dimensions only).
  The contents of control.in will be repeated verbatim below
  unless switched off by setting 'verbatim_writeout .false.' .
  in the first line of control.in .
  -----------------------------------------------------------------------
  
  #===============================================================================
  # FHI-aims file: ./control.in
  # Created using the Atomic Simulation Environment (ASE)
  # Thu Mar 19 17:13:22 2020
  #===============================================================================
  xc                                 pbe
  # include_spin_orbit
  # vdw_correction_hirshfeld
  # many_body_dispersion_nl 	 beta=0.81
  spin                               none
  k_grid 	 	 22 22 1
  relativistic                       atomic_zora scalar
  ### SCF settings
  adjust_scf 	 always 	 3
  # frozen_core_scf 	 .true.
  # charge_mix_param  0.05
  # occupation_type 	 gaussian 	 0.01
  # sc_accuracy_eev   1E-3 	 	 # sum of eigenvalues convergence
  # sc_accuracy_etot  1E-6 	 	 # total energy convergence
  # sc_accuracy_rho   1E-3 	 	 # electron density convergence
  # elsi_restart 	 read_and_write 	 1000
  #===============================================================================
  
  ################################################################################
  #
  #  FHI-aims code project
  # Volker Blum, Fritz Haber Institute Berlin, 2009
  #
  #  Suggested "tight" defaults for C atom (to be pasted into control.in file)
  #
  ################################################################################
    species        C
  #     global species definitions
      nucleus             6
      mass                12.0107
  #
      l_hartree           6
  #
      cut_pot             4.0  2.0  1.0
      basis_dep_cutoff    1e-4
  #
      radial_base         34 7.0
      radial_multiplier   2
      angular_grids specified
        division   0.2187   50
        division   0.4416  110
        division   0.6335  194
        division   0.7727  302
        division   0.8772  434
  #      division   0.9334  590
  #      division   0.9924  770
  #      division   1.0230  974
  #      division   1.5020 1202
  #     outer_grid  974
        outer_grid  434
  ################################################################################
  #
  #  Definition of "minimal" basis
  #
  ################################################################################
  #     valence basis states
      valence      2  s   2.
      valence      2  p   2.
  #     ion occupancy
      ion_occ      2  s   1.
      ion_occ      2  p   1.
  ################################################################################
  #
  #  Suggested additional basis functions. For production calculations,
  #  uncomment them one after another (the most important basis functions are
  #  listed first).
  #
  #  Constructed for dimers: 1.0 A, 1.25 A, 1.5 A, 2.0 A, 3.0 A
  #
  ################################################################################
  #  "First tier" - improvements: -1214.57 meV to -155.61 meV
       hydro 2 p 1.7
       hydro 3 d 6
       hydro 2 s 4.9
  #  "Second tier" - improvements: -67.75 meV to -5.23 meV
       hydro 4 f 9.8
       hydro 3 p 5.2
       hydro 3 s 4.3
       hydro 5 g 14.4
       hydro 3 d 6.2
  #  "Third tier" - improvements: -2.43 meV to -0.60 meV
  #     hydro 2 p 5.6
  #     hydro 2 s 1.4
  #     hydro 3 d 4.9
  #     hydro 4 f 11.2
  #  "Fourth tier" - improvements: -0.39 meV to -0.18 meV
  #     hydro 2 p 2.1
  #     hydro 5 g 16.4
  #     hydro 4 d 13.2
  #     hydro 3 s 13.6
  #     hydro 4 f 17.6
  #  Further basis functions - improvements: -0.08 meV and below
  #     hydro 3 s 2
  #     hydro 3 p 6
  #     hydro 4 d 20
  ################################################################################
  #
  # For methods that use the localized form of the "resolution of identity" for
  # the two-electron Coulomb operator (RI_method LVL), particularly Hartree-Fock and
  # hybrid density functional calculations, the highest accuracy can be obtained by
  # uncommenting the line beginning with "for_aux"  below, thus adding an extra g radial
  # function to the construction of the product basis set for the expansion.
  # See Ref. New J. Phys. 17, 093020 (2015) for more information, particularly Figs. 1 and 6.
  #
  ################################################################################
  #
  # for_aux hydro 5 g 6.0
  
  -----------------------------------------------------------------------
  Completed first pass over input file control.in .
  -----------------------------------------------------------------------
  
  
  -----------------------------------------------------------------------
  Parsing geometry.in (first pass over file, find array dimensions only).
  The contents of geometry.in will be repeated verbatim below
  unless switched off by setting 'verbatim_writeout .false.' .
  in the first line of geometry.in .
  -----------------------------------------------------------------------
  
  #=======================================================
  # FHI-aims file: ./geometry.in
  # Created using the Atomic Simulation Environment (ASE)
  # Thu Mar 19 17:13:22 2020
  #=======================================================
  lattice_vector 2.4599999985668495 0.0000000000000000 0.0000000000000000
  lattice_vector -1.2299999992834247 2.1304224920685741 0.0000000000000000
  lattice_vector 0.0000000000000000 0.0000000000000000 100.0000000000000000
  atom_frac 0.3333333333333332 0.0000000000000000 0.5000000000000000 C
  atom_frac 0.0000000000000000 0.3333333333333334 0.5000000000000000 C
  
  -----------------------------------------------------------------------
  Completed first pass over input file geometry.in .
  -----------------------------------------------------------------------
  

  Basic array size parameters:
  | Number of species                 :        1
  | Number of atoms                   :        2
  | Number of lattice vectors         :        3
  | Max. basis fn. angular momentum   :        4
  | Max. atomic/ionic basis occupied n:        2
  | Max. number of basis fn. types    :        2
  | Max. radial fns per species/type  :        8
  | Max. logarithmic grid size        :     1277
  | Max. radial integration grid size :       69
  | Max. angular integration grid size:      434
  | Max. angular grid division number :        8
  | Radial grid for Hartree potential :     1277
  | Number of spin channels           :        1

------------------------------------------------------------
          Reading file control.in.
------------------------------------------------------------
  XC: Using PBE gradient-corrected functionals.
  Spin treatment: No spin polarisation.
  Found k-point grid:        22        22         1
  Scalar relativistic treatment of kinetic energy: on-site free-atom approximation to ZORA.
  S.C.F. convergence parameters will be adjusted in iteration number     3 of each new s.c.f. cycle.
 
  Reading configuration options for species C                   .
  | Found nuclear charge :   6.0000
  | Found atomic mass :    12.0107000000000      amu
  | Found l_max for Hartree potential  :   6
  | Found cutoff potl. onset [A], width [A], scale factor :    4.00000    2.00000    1.00000
  | Threshold for basis-dependent cutoff potential is   0.100000E-03
  | Found data for basic radial integration grid :    34 points, outermost radius =    7.000 A
  | Found multiplier for basic radial grid :   2
  | Found angular grid specification: user-specified.
  | Specified grid contains     6 separate shells.
  | Check grid settings after all constraints further below.
  | Found free-atom valence shell :  2 s   2.000
  | Found free-atom valence shell :  2 p   2.000
  | No ionic wave fns used. Skipping ion_occ.
  | No ionic wave fns used. Skipping ion_occ.
  | Found hydrogenic basis function :  2 p   1.700
  | Found hydrogenic basis function :  3 d   6.000
  | Found hydrogenic basis function :  2 s   4.900
  | Found hydrogenic basis function :  4 f   9.800
  | Found hydrogenic basis function :  3 p   5.200
  | Found hydrogenic basis function :  3 s   4.300
  | Found hydrogenic basis function :  5 g  14.400
  | Found hydrogenic basis function :  3 d   6.200
  Species C                   : Missing cutoff potential type.
  Defaulting to exp(1/x)/(1-x)^2 type cutoff potential.
  Species C : No 'logarithmic' tag. Using default grid for free atom:
  | Default logarithmic grid data [bohr] : 0.1000E-03 0.1000E+03 0.1012E+01
  Species C : On-site basis accuracy parameter (for Gram-Schmidt orthonormalisation) not specified.
  Using default value basis_acc =  0.1000000E-03.
  Species C                   : Using default innermost maximum threshold i_radial=  2 for radial functions.
  Species C                   : Default cutoff onset for free atom density etc. : 0.40000000E+01 AA.
  Species C                   : Basic radial grid will be enhanced according to radial_multiplier =   2, to contain    69 grid points.
 
  Finished reading input file 'control.in'. Consistency checks are next.
 
  MPI_IN_PLACE appears to work with this MPI implementation.
  | Keeping use_mpi_in_place .true. (see manual).
  Target number of points in a grid batch is not set. Defaulting to  100
  Method for grid partitioning is not set. Defaulting to parallel hash+maxmin partitioning.
  Batch size limit is not set. Defaulting to    200
  By default, will store active basis functions for each batch.
  If in need of memory, prune_basis_once .false. can be used to disable this option.
  communication_type for Hartree potential was not specified.
  Defaulting to calc_hartree .
  Defaulting to Pulay charge density mixer.
  Pulay mixer: Number of relevant iterations not set.
  Defaulting to    8 iterations.
  Pulay mixer: Number of initial linear mixing iterations not set.
  Defaulting to    0 iterations.
  Work space size for distributed Hartree potential not set.
  Defaulting to   0.200000E+03 MB.
  Mixing parameter for charge density mixing has not been set.
  Using default: charge_mix_param =     0.0500.
  The mixing parameter will be adjusted in iteration number     3 of each s.c.f. cycle (i.e., each geometry step).
  Algorithm-dependent basis array size parameters:
  | n_max_pulay                         :        8
  Maximum number of self-consistency iterations not provided.
  Presetting  1000 iterations.
  Presetting      1001 iterations before the initial mixing cycle
  is restarted anyway using the sc_init_iter criterion / keyword.
  Presetting a factor      1.000 between actual scf density residual
  and density convergence criterion sc_accuracy_rho below which sc_init_iter
  takes no effect.
 * No s.c.f. convergence criteria (sc_accuracy_*) were provided in control.in.
 * The run will proceed with a reasonable default guess, but please check whether.
 * the s.c.f. cycles seem to take too much or too little time.
  Calculation of forces was not defined in control.in. No forces will be calculated.
  Geometry relaxation not requested: no relaxation will be performed.
 * Notice: The s.c.f. convergence criterion sc_accuracy_rho was not provided.
 * We used to stop in this case, and ask the user to provide reasonable
 * scf convergence criteria. However, this led some users to employ criteria
 * that led to extremely long run times, e.g., for simple relaxation.
 * We now preset a default value for sc_accuracy_rho if it is not set.
 * You may still wish to check if this setting is too tight or too loose for your needs.
 * Based on n_atoms, FHI-aims chose sc_accuracy_rho =  0.100000E-05 .
  No accuracy limit for integral partition fn. given. Defaulting to  0.1000E-14.
  No threshold value for u(r) in integrations given. Defaulting to  0.1000E-05.
  No occupation type (smearing scheme) given. Defaulting to Gaussian broadening, width =  0.1000E-01 eV.
  The width will be adjusted in iteration number     3 of each s.c.f. cycle (i.e., each geometry step).
  S.C.F. convergence parameters will be adjusted in iteration number     3 of the first full s.c.f. cycle only.
  No accuracy for occupation numbers given. Defaulting to  0.1000E-12.
  No threshold value for occupation numbers given. Defaulting to  0.0000E+00.
  No accuracy for fermi level given. Defaulting to  0.1000E-19.
  Maximum # of iterations to find E_F not set. Defaulting to  200.
  Preferred method for the eigenvalue solver ('KS_method') not specified in 'control.in'.
  Defaulting to serial version, LAPACK (via ELSI), since more k-points than CPUs available.
  Will not use alltoall communication since running on < 1024 CPUs.
  Threshold for basis singularities not set.
  Default threshold for basis singularities:  0.1000E-04
  partition_type (choice of integration weights) for integrals was not specified.
  | Using a version of the partition function of Stratmann and coworkers ('stratmann_sparse').
  | At each grid point, the set of atoms used to build the partition table is smoothly restricted to
  | only those atoms whose free-atom density would be non-zero at that grid point.
  Partitioning for Hartree potential was not defined. Using partition_type for integrals.
  | Adjusted default value of keyword multip_moments_threshold to:       0.10000000E-11
  | This value may affect high angular momentum components of the Hartree potential in periodic systems.
  Angular momentum expansion for Kerker preconditioner not set explicitly.
  | Using default value of   0
  No explicit requirement for turning off preconditioner.
  | By default, it will be turned off when the charge convergence reaches
  | sc_accuracy_rho  =   0.100000E-05
  No special mixing parameter while Kerker preconditioner is on.
  Using default: charge_mix_param =     0.0500.
  No q(lm)/r^(l+1) cutoff set for long-range Hartree potential.
  | Using default value of  0.100000E-09 .
  | Verify using the multipole_threshold keyword.
  Defaulting to new monopole extrapolation.
  Density update method: automatic selection selected.
  Using density matrix based charge density update.
  Using density matrix based charge density update.
  Using packed matrix style: index .
  Defaulting to use time-reversal symmetry for k-point grid.
  Charge integration errors on the 3D integration grid will be compensated
  by explicit normalization and distribution of residual charges.
  Use the "compensate_multipole_errors" flag to change this behaviour.
------------------------------------------------------------


------------------------------------------------------------
          Reading geometry description geometry.in.
------------------------------------------------------------
  Input structure read successfully.
  The structure contains        2 atoms,  and a total of         12.000 electrons.

  Input geometry:
  | Unit cell:
  |        2.46000000        0.00000000        0.00000000
  |       -1.23000000        2.13042249        0.00000000
  |        0.00000000        0.00000000      100.00000000
  | Atomic structure:
  |       Atom                x [A]            y [A]            z [A]
  |    1: Species C             0.82000000        0.00000000       50.00000000
  |    2: Species C            -0.41000000        0.71014083       50.00000000

  Lattice parameters for 3D lattice (in Angstroms) :     2.460000    2.460000  100.000000
  Angle(s) between unit vectors (in degrees)       :    90.000000   90.000000  120.000000

  | The smallest distance between any two atoms is         1.42028166 AA.
  | The first atom of this pair is atom number                      1 .
  | The second atom of this pair is atom number                     2 .
  | Wigner-Seitz cell of the first atom image           0     0     0 .
  | (The Wigner-Seitz cell of the second atom is 0 0 0  by definition.)

  Symmetry information by spglib:
  | Precision set to  0.1E-04
  | Number of Operations  : 24
  | Space group           : 191
  | International         : P6/mmm
  | Schoenflies           : D6h^1

  Quantities derived from the lattice vectors:
  | Reciprocal lattice vector 1:  2.554140  1.474634  0.000000
  | Reciprocal lattice vector 2:  0.000000  2.949267  0.000000
  | Reciprocal lattice vector 3:  0.000000  0.000000  0.062832
  | Unit cell volume                               :   0.524084E+03  A^3

  Range separation radius for Ewald summation (hartree_convergence_parameter):      5.00000000 bohr.

  Fractional coordinates:
                         L1                L2                L3
       atom_frac         0.33333333        0.00000000        0.50000000  C
       atom_frac         0.00000000        0.33333333        0.50000000  C

  Number of empty states per atom not set in control.in - providing a guess from actual geometry.
  | Total number of empty states used during s.c.f. cycle:        6
  If you use a very high smearing, use empty_states (per atom!) in control.in to increase this value.

  Structure-dependent array size parameters: 
  | Maximum number of distinct radial functions  :       11
  | Maximum number of basis functions            :       78
  | Number of Kohn-Sham states (occupied + empty):       12
------------------------------------------------------------

------------------------------------------------------------
          Preparing all fixed parts of the calculation.
------------------------------------------------------------
  Determining machine precision:
    2.225073858507201E-308
  Setting up grids for atomic and cluster calculations.

  Creating wave function, potential, and density for free atoms.

  Species: C

  List of occupied orbitals and eigenvalues:
    n    l              occ      energy [Ha]    energy [eV]
    1    0           2.0000       -10.049212      -273.4530
    2    0           2.0000        -0.504761       -13.7352
    2    1           2.0000        -0.193631        -5.2690

  Creating fixed part of basis set: Ionic, confined, hydrogenic.
 
  C                    hydrogenic:
 
  List of hydrogenic basis orbitals: 
    n    l      effective z      eigenvalue [eV]  inner max. [A]     outer max. [A]     outer radius [A]   
    2    1         1.700000        -9.8152           1.245706           1.245706           5.401630
    3    2         6.000000       -54.4226           0.792453           0.792453           4.178599
    2    0         4.900000       -81.6681           0.082559           0.562749           3.353238
    4    3         9.800000       -81.6681           0.863254           0.863254           4.028125
    3    1         5.200000       -40.8774           0.305389           1.215618           4.898362
    3    0         4.300000       -27.9508           0.091041           1.610311           5.401630
    5    4        14.400000      -112.8510           0.917666           0.917666           3.883070
    3    2         6.200000       -58.1113           0.763917           0.763917           4.077671
 

  Adding cutoff potential to free-atom effective potential.
  Creating atomic-like basis functions for current effective potential.

  Species C                   :

  List of atomic basis orbitals and eigenvalues:
    n    l      energy [Ha]    energy [eV]    outer radius [A]
    1    0       -10.049212      -273.4530       1.934409
    2    0        -0.504761       -13.7352       5.271162
    2    1        -0.193631        -5.2690       5.401630

  Assembling full basis from fixed parts.
  | Species C :   atomic orbital   1 s accepted.
  | Species C :    hydro orbital   2 s accepted.
  | Species C :   atomic orbital   2 s accepted.
  | Species C :    hydro orbital   3 s accepted.
  | Species C :    hydro orbital   3 p accepted.
  | Species C :   atomic orbital   2 p accepted.
  | Species C :    hydro orbital   2 p accepted.
  | Species C :    hydro orbital   3 d accepted.
  | Species C :    hydro orbital   3 d accepted.
  | Species C :    hydro orbital   4 f accepted.
  | Species C :    hydro orbital   5 g accepted.
 
  Basis size parameters after reduction:
  | Total number of radial functions:       11
  | Total number of basis functions :       78
 
  Per-task memory consumption for arrays in subroutine allocate_ext:
  |           3.598348MB.
  Testing on-site integration grid accuracy.
  |  Species  Function  <phi|h_atom|phi> (log., in eV)  <phi|h_atom|phi> (rad., in eV)
           1        1               -273.4529725981               -273.4529710451
           1        2                -10.7721037329                -10.7721022102
           1        3                 17.6044132585                 17.6044162052
           1        4                 53.7706460564                 53.7706913681
           1        5                 15.0973290351                 15.0973256011
           1        6                  3.8545134677                  3.8545724657
           1        7                 12.1156992586                 12.1182024423
           1        8                 29.4352039288                 29.4352041805
           1        9                 54.8741144697                 54.8740268719
           1       10                 59.3556032036                 59.3556031370
           1       11                 93.4551837140                 93.4551837996

  Preparing densities etc. for the partition functions (integrals / Hartree potential).

  Preparations completed.
  max(cpu_time)          :      0.147 s.
  Wall clock time (cpu1) :      0.170 s.
------------------------------------------------------------

------------------------------------------------------------
          Begin self-consistency loop: Initialization.

          Date     :  20200319, Time     :  194116.064
------------------------------------------------------------

  Initializing index lists of integration centers etc. from given atomic structure:
  Mapping all atomic coordinates to central unit cell.

  Initializing the k-points
  Using symmetry for reducing the k-points
  | k-points reduced from:      484 to      244
  | Number of k-points                             :       244
  The eigenvectors in the calculations are COMPLEX.
  | K-points in task   0:        10
  | K-points in task   1:        11
  | K-points in task   2:        11
  | K-points in task   3:        11
  | K-points in task   4:        11
  | K-points in task   5:        10
  | K-points in task   6:        10
  | K-points in task   7:        10
  | K-points in task   8:        10
  | K-points in task   9:        10
  | K-points in task  10:        10
  | K-points in task  11:        10
  | K-points in task  12:        10
  | K-points in task  13:        10
  | K-points in task  14:        10
  | K-points in task  15:        10
  | K-points in task  16:        10
  | K-points in task  17:        10
  | K-points in task  18:        10
  | K-points in task  19:        10
  | K-points in task  20:        10
  | K-points in task  21:        10
  | K-points in task  22:        10
  | K-points in task  23:        10
  | Number of basis functions in the Hamiltonian integrals :      3626
  | Number of basis functions in a single unit cell        :        78
  | Number of centers in hartree potential         :       410
  | Number of centers in hartree multipole         :       208
  | Number of centers in electron density summation:       174
  | Number of centers in basis integrals           :       252
  | Number of centers in integrals                 :       144
  | Number of centers in hamiltonian               :       174
  | Consuming        488 KiB for k_phase.
  | Number of super-cells (origin) [n_cells]                     :        1083
  | Number of super-cells (after PM_index) [n_cells]             :         128
  | Number of super-cells in hamiltonian [n_cells_in_hamiltonian]:          90
  | Size of matrix packed + index [n_hamiltonian_matrix_size] :      149674
  | Estimated reciprocal-space cutoff momentum G_max:         1.90186217 bohr^-1 .
  | Reciprocal lattice points for long-range Hartree potential:     504
  Partitioning the integration grid into batches with parallel hashing+maxmin method.
  | Number of batches:      501
  | Maximal batch size:     176
  | Minimal batch size:      26
  | Average batch size:      72.168
  | Standard deviation of batch sizes:      19.259

  Integration load balanced across    24 MPI tasks.
  Work distribution over tasks is as follows:
  Task     0 has       1546 integration points.
  Task     1 has       1492 integration points.
  Task     2 has       1487 integration points.
  Task     3 has       1490 integration points.
  Task     4 has       1493 integration points.
  Task     5 has       1491 integration points.
  Task     6 has       1489 integration points.
  Task     7 has       1538 integration points.
  Task     8 has       1485 integration points.
  Task     9 has       1493 integration points.
  Task    10 has       1488 integration points.
  Task    11 has       1488 integration points.
  Task    12 has       1531 integration points.
  Task    13 has       1482 integration points.
  Task    14 has       1496 integration points.
  Task    15 has       1536 integration points.
  Task    16 has       1484 integration points.
  Task    17 has       1511 integration points.
  Task    18 has       1555 integration points.
  Task    19 has       1531 integration points.
  Task    20 has       1494 integration points.
  Task    21 has       1495 integration points.
  Task    22 has       1514 integration points.
  Task    23 has       1547 integration points.
  Initializing partition tables, free-atom densities, potentials, etc. across the integration grid (initialize_grid_storage).
  | initialize_grid_storage: Actual outermost partition radius vs. multipole_radius_free
  | (-- VB: in principle, multipole_radius_free should be larger, hence this output)
  | Species        1: Confinement radius =              6.000000000000000 AA, multipole_radius_free =              6.029870734432609 AA.
  | Species        1: outer_partition_radius set to              6.029870734432609 AA .
  | The sparse table of interatomic distances needs        398.45 kbyte instead of       508.03 kbyte of memory.
  | Net number of integration points:    36156
  | of which are non-zero points    :    27542
  | Numerical average free-atom electrostatic potential    :     -0.47107749 eV
  Renormalizing the initial density to the exact electron count on the 3D integration grid.
  | Initial density: Formal number of electrons (from input files) :      12.0000000000
  | Integrated number of electrons on 3D grid     :      12.0000182905
  | Charge integration error                      :       0.0000182905
  | Normalization factor for density and gradient :       0.9999984758
  Renormalizing the free-atom superposition density to the exact electron count on the 3D integration grid.
  | Formal number of electrons (from input files) :      12.0000000000
  | Integrated number of electrons on 3D grid     :      12.0000182905
  | Charge integration error                      :       0.0000182905
  | Normalization factor for density and gradient :       0.9999984758
  Obtaining max. number of non-zero basis functions in each batch (get_n_compute_maxes).
  | Maximal number of non-zero basis functions:     1103 in task     0
  | Maximal number of non-zero basis functions:     1091 in task     1
  | Maximal number of non-zero basis functions:     1091 in task     2
  | Maximal number of non-zero basis functions:     1080 in task     3
  | Maximal number of non-zero basis functions:     1091 in task     4
  | Maximal number of non-zero basis functions:     1090 in task     5
  | Maximal number of non-zero basis functions:     1078 in task     6
  | Maximal number of non-zero basis functions:     1080 in task     7
  | Maximal number of non-zero basis functions:     1101 in task     8
  | Maximal number of non-zero basis functions:     1109 in task     9
  | Maximal number of non-zero basis functions:     1099 in task    10
  | Maximal number of non-zero basis functions:     1088 in task    11
  | Maximal number of non-zero basis functions:     1104 in task    12
  | Maximal number of non-zero basis functions:     1083 in task    13
  | Maximal number of non-zero basis functions:     1085 in task    14
  | Maximal number of non-zero basis functions:     1103 in task    15
  | Maximal number of non-zero basis functions:     1090 in task    16
  | Maximal number of non-zero basis functions:     1075 in task    17
  | Maximal number of non-zero basis functions:     1083 in task    18
  | Maximal number of non-zero basis functions:     1081 in task    19
  | Maximal number of non-zero basis functions:     1091 in task    20
  | Maximal number of non-zero basis functions:     1105 in task    21
  | Maximal number of non-zero basis functions:     1073 in task    22
  | Maximal number of non-zero basis functions:     1083 in task    23
  Allocating        0.143 MB for KS_eigenvector_complex
  Integrating Hamiltonian matrix: batch-based integration.
  Time summed over all CPUs for integration: real work        7.420 s, elapsed        8.025 s
  Integrating overlap matrix.
  Time summed over all CPUs for integration: real work        5.337 s, elapsed        5.791 s
  Decreasing sparse matrix size:
  | Tolerance:  0.1000E-12
  Hamiltonian matrix
  | Array has    73231 nonzero elements out of   149674 elements
  | Sparsity factor is 0.511
  Overlap matrix
  | Array has    69763 nonzero elements out of   149674 elements
  | Sparsity factor is 0.534
  New size of hamiltonian matrix:       74308

  Updating Kohn-Sham eigenvalues and eigenvectors using ELSI and the (modified) LAPACK eigensolver.
  Singularity check in k-point 24, task 0 (analysis for other k-points/tasks may follow below):
  Overlap matrix is not singular
  | Lowest and highest eigenvalues :  0.9535E-04,  0.9406E+01
  Finished singularity check of overlap matrix
  | Time :     0.020 s
  Starting LAPACK eigensolver
  Finished Cholesky decomposition
  | Time :     0.012 s
  Finished transformation to standard eigenproblem
  | Time :     0.000 s
  Finished solving standard eigenproblem
  | Time :     0.001 s
  Finished back-transformation of eigenvectors
  | Time :     0.000 s

  Obtaining occupation numbers and chemical potential using ELSI.
  | Chemical potential (Fermi level):    -7.83931181 eV
  Writing Kohn-Sham eigenvalues.
  K-point:       1 at    0.000000    0.000000    0.000000 (in units of recip. lattice)

  State    Occupation    Eigenvalue [Ha]    Eigenvalue [eV]
      1       2.00000         -10.166487         -276.64418
      2       2.00000         -10.165529         -276.61812
      3       2.00000          -1.047179          -28.49519
      4       2.00000          -0.571675          -15.55606
      5       2.00000          -0.468419          -12.74633
      6       2.00000          -0.468419          -12.74633
      7       0.00000          -0.029483           -0.80227
      8       0.00000          -0.029482           -0.80224
      9       0.00000           0.002577            0.07013
     10       0.00000           0.029472            0.80198
     11       0.00000           0.097032            2.64039
     12       0.00000           0.135786            3.69493

  What follows are estimated values for band gap, HOMO, LUMO, etc.
  | They are estimated on a discrete k-point grid and not necessarily exact.
  | For converged numbers, create a DOS and/or band structure plot on a denser k-grid.

  Highest occupied state (VBM) at     -8.65007561 eV (relative to internal zero)
  | Occupation number:      2.00000000
  | K-point:     204 at    0.636364    0.681818    0.000000 (in units of recip. lattice)

  Lowest unoccupied state (CBM) at    -7.79170835 eV (relative to internal zero)
  | Occupation number:      0.00000000
  | K-point:     204 at    0.636364    0.681818    0.000000 (in units of recip. lattice)

  ESTIMATED overall HOMO-LUMO gap:      0.85836726 eV between HOMO at k-point 204 and LUMO at k-point 204
  | This appears to be a direct band gap.
  The gap value is above 0.2 eV. Unless you are using a very sparse k-point grid,
  this system is most likely an insulator or a semiconductor.
  Calculating total energy contributions from superposition of free atom densities.

  Total energy components:
  | Sum of eigenvalues            :         -45.99578320 Ha       -1251.60894196 eV
  | XC energy correction          :         -10.69815894 Ha        -291.11171634 eV
  | XC potential correction       :          13.74328821 Ha         373.97389966 eV
  | Free-atom electrostatic energy:         -33.32005150 Ha        -906.68473292 eV
  | Hartree energy correction     :           0.00000000 Ha           0.00000000 eV
  | Entropy correction            :          -0.00000000 Ha          -0.00000000 eV
  | ---------------------------
  | Total energy                  :         -76.27070543 Ha       -2075.43149156 eV
  | Total energy, T -> 0          :         -76.27070543 Ha       -2075.43149156 eV  <-- do not rely on this value for anything but (periodic) metals
  | Electronic free energy        :         -76.27070543 Ha       -2075.43149156 eV

  Derived energy quantities:
  | Kinetic energy                :          75.93581603 Ha        2066.31868722 eV
  | Electrostatic energy          :        -141.50836252 Ha       -3850.63846244 eV
  | Energy correction for multipole
  | error in Hartree potential    :           0.00000000 Ha           0.00000000 eV
  | Sum of eigenvalues per atom                           :        -625.80447098 eV
  | Total energy (T->0) per atom                          :       -1037.71574578 eV  <-- do not rely on this value for anything but (periodic) metals
  | Electronic free energy per atom                       :       -1037.71574578 eV
  Initialize hartree_potential_storage
  Max. number of atoms included in rho_multipole:            2

  End scf initialization - timings             :  max(cpu_time)    wall_clock(cpu1)
  | Time for scf. initialization               :        1.662 s           1.703 s
  | Boundary condition initialization          :        0.770 s           0.773 s
  | Integration                                :        0.588 s           0.592 s
  | Solution of K.-S. eqns.                    :        0.047 s           0.071 s
  | Grid partitioning                          :        0.136 s           0.136 s
  | Preloading free-atom quantities on grid    :        0.009 s           0.010 s
  | Free-atom superposition energy             :        0.008 s           0.008 s
  | Total energy evaluation                    :        0.000 s           0.000 s

  Partial memory accounting:
  | Current value for overall tracked memory usage:
  |   Minimum:        1.561 MB (on task  0)
  |   Maximum:        1.575 MB (on task  1)
  |   Average:        1.563 MB
  | Peak value for overall tracked memory usage:
  |   Minimum:       16.129 MB (on task 22 after allocating wave)
  |   Maximum:       16.874 MB (on task  9 after allocating wave)
  |   Average:       16.479 MB
  | Largest tracked array allocation so far:
  |   Minimum:        8.784 MB (hamiltonian_shell on task 22)
  |   Maximum:        9.383 MB (hamiltonian_shell on task  9)
  |   Average:        9.063 MB
  Note:  These values currently only include a subset of arrays which are explicitly tracked.
  The "true" memory usage will be greater.
------------------------------------------------------------

------------------------------------------------------------
          Begin self-consistency iteration #    1

  Date     :  20200319, Time     :  194117.769
------------------------------------------------------------
  Evaluating new KS density using the density matrix
  Evaluating density matrix
  Time summed over all CPUs for getting density from density matrix: real work       13.478 s, elapsed       14.967 s
  Integration grid: deviation in total charge (<rho> - N_e) =   2.096101E-13
  Pulay mixing of updated and previous charge densities.
  Renormalizing the density to the exact electron count on the 3D integration grid.
  | Formal number of electrons (from input files) :      12.0000000000
  | Integrated number of electrons on 3D grid     :      11.9997407562
  | Charge integration error                      :      -0.0002592438
  | Normalization factor for density and gradient :       1.0000216041

  Evaluating partitioned Hartree potential by multipole expansion.
  | Original multipole sum: apparent total charge =   0.164388E-14
  | Sum of charges compensated after spline to logarithmic grids =   0.560095E-07
  | Analytical far-field extrapolation by fixed multipoles:
  | Hartree multipole sum: apparent total charge =   0.000000E+00
  Summing up the Hartree potential.
  Time summed over all CPUs for potential: real work        2.552 s, elapsed        2.731 s
  | RMS charge density error from multipole expansion :   0.370967E-03
  | Average real-space part of the electrostatic potential :      0.00009002 eV

  Integrating Hamiltonian matrix: batch-based integration.
  Time summed over all CPUs for integration: real work        6.734 s, elapsed        7.290 s

  Updating Kohn-Sham eigenvalues and eigenvectors using ELSI and the (modified) LAPACK eigensolver.
  Starting LAPACK eigensolver
  Finished Cholesky decomposition
  | Time :     0.001 s
  Finished transformation to standard eigenproblem
  | Time :     0.000 s
  Finished solving standard eigenproblem
  | Time :     0.001 s
  Finished back-transformation of eigenvectors
  | Time :     0.000 s

  Obtaining occupation numbers and chemical potential using ELSI.
  | Chemical potential (Fermi level):    -7.59810655 eV
  Writing Kohn-Sham eigenvalues.
  K-point:       1 at    0.000000    0.000000    0.000000 (in units of recip. lattice)

  State    Occupation    Eigenvalue [Ha]    Eigenvalue [eV]
      1       2.00000         -10.151621         -276.23967
      2       2.00000         -10.150663         -276.21358
      3       2.00000          -1.036902          -28.21555
      4       2.00000          -0.563567          -15.33543
      5       2.00000          -0.456458          -12.42085
      6       2.00000          -0.456458          -12.42085
      7       0.00000          -0.018555           -0.50492
      8       0.00000          -0.018554           -0.50489
      9       0.00000           0.006290            0.17115
     10       0.00000           0.032008            0.87099
     11       0.00000           0.107276            2.91913
     12       0.00000           0.146286            3.98065

  What follows are estimated values for band gap, HOMO, LUMO, etc.
  | They are estimated on a discrete k-point grid and not necessarily exact.
  | For converged numbers, create a DOS and/or band structure plot on a denser k-grid.

  Highest occupied state (VBM) at     -8.41029369 eV (relative to internal zero)
  | Occupation number:      2.00000000
  | K-point:     204 at    0.636364    0.681818    0.000000 (in units of recip. lattice)

  Lowest unoccupied state (CBM) at    -7.55014220 eV (relative to internal zero)
  | Occupation number:      0.00000000
  | K-point:     204 at    0.636364    0.681818    0.000000 (in units of recip. lattice)

  ESTIMATED overall HOMO-LUMO gap:      0.86015149 eV between HOMO at k-point 204 and LUMO at k-point 204
  | This appears to be a direct band gap.
  The gap value is above 0.2 eV. Unless you are using a very sparse k-point grid,
  this system is most likely an insulator or a semiconductor.

  Total energy components:
  | Sum of eigenvalues            :         -45.85312030 Ha       -1247.72688711 eV
  | XC energy correction          :         -10.70528044 Ha        -291.30550213 eV
  | XC potential correction       :          13.75253247 Ha         374.22544899 eV
  | Free-atom electrostatic energy:         -33.32005150 Ha        -906.68473292 eV
  | Hartree energy correction     :          -0.13948416 Ha          -3.79555699 eV
  | Entropy correction            :          -0.00000000 Ha          -0.00000000 eV
  | ---------------------------
  | Total energy                  :         -76.26540392 Ha       -2075.28723015 eV
  | Total energy, T -> 0          :         -76.26540392 Ha       -2075.28723015 eV  <-- do not rely on this value for anything but (periodic) metals
  | Electronic free energy        :         -76.26540392 Ha       -2075.28723015 eV

  Derived energy quantities:
  | Kinetic energy                :          75.96205884 Ha        2067.03279056 eV
  | Electrostatic energy          :        -141.52218233 Ha       -3851.01451858 eV
  | Energy correction for multipole
  | error in Hartree potential    :          -0.00052305 Ha          -0.01423280 eV
  | Sum of eigenvalues per atom                           :        -623.86344355 eV
  | Total energy (T->0) per atom                          :       -1037.64361507 eV  <-- do not rely on this value for anything but (periodic) metals
  | Electronic free energy per atom                       :       -1037.64361507 eV

  Self-consistency convergence accuracy:
  | Change of charge density      :  0.2343E+00
  | Change of sum of eigenvalues  :  0.3882E+01 eV
  | Change of total energy        :  0.1443E+00 eV

  End self-consistency iteration #     1       :  max(cpu_time)    wall_clock(cpu1)
  | Time for this iteration                    :        1.117 s           1.117 s
  | Charge density update                      :        0.629 s           0.629 s
  | Density mixing & preconditioning           :        0.027 s           0.026 s
  | Hartree multipole update                   :        0.002 s           0.002 s
  | Hartree multipole summation                :        0.126 s           0.126 s
  | Integration                                :        0.309 s           0.310 s
  | Solution of K.-S. eqns.                    :        0.024 s           0.023 s
  | Total energy evaluation                    :        0.000 s           0.001 s

  Partial memory accounting:
  | Current value for overall tracked memory usage:
  |   Minimum:        1.561 MB (on task  0)
  |   Maximum:        1.575 MB (on task  1)
  |   Average:        1.563 MB
  | Peak value for overall tracked memory usage:
  |   Minimum:       18.989 MB (on task 22 after allocating gradient_basis_wave)
  |   Maximum:       19.879 MB (on task  9 after allocating gradient_basis_wave)
  |   Average:       19.407 MB
  | Largest tracked array allocation so far:
  |   Minimum:        8.784 MB (hamiltonian_shell on task 22)
  |   Maximum:        9.383 MB (hamiltonian_shell on task  9)
  |   Average:        9.063 MB
  Note:  These values currently only include a subset of arrays which are explicitly tracked.
  The "true" memory usage will be greater.
------------------------------------------------------------

------------------------------------------------------------
          Begin self-consistency iteration #    2

  Date     :  20200319, Time     :  194118.887
------------------------------------------------------------
  Evaluating new KS density using the density matrix
  Evaluating density matrix
  Time summed over all CPUs for getting density from density matrix: real work       13.274 s, elapsed       14.378 s
  Integration grid: deviation in total charge (<rho> - N_e) =   1.474376E-13
  Pulay mixing of updated and previous charge densities.
  Renormalizing the density to the exact electron count on the 3D integration grid.
  | Formal number of electrons (from input files) :      12.0000000000
  | Integrated number of electrons on 3D grid     :      11.9956204927
  | Charge integration error                      :      -0.0043795073
  | Normalization factor for density and gradient :       1.0003650922

  Evaluating partitioned Hartree potential by multipole expansion.
  | Original multipole sum: apparent total charge =   0.489597E-14
  | Sum of charges compensated after spline to logarithmic grids =   0.756281E-06
  | Analytical far-field extrapolation by fixed multipoles:
  | Hartree multipole sum: apparent total charge =   0.000000E+00
  Summing up the Hartree potential.
  Time summed over all CPUs for potential: real work        2.953 s, elapsed        3.149 s
  | RMS charge density error from multipole expansion :   0.661065E-02
  | Average real-space part of the electrostatic potential :      0.00153986 eV

  Integrating Hamiltonian matrix: batch-based integration.
  Time summed over all CPUs for integration: real work        6.742 s, elapsed        7.294 s

  Updating Kohn-Sham eigenvalues and eigenvectors using ELSI and the (modified) LAPACK eigensolver.
  Starting LAPACK eigensolver
  Finished Cholesky decomposition
  | Time :     0.000 s
  Finished transformation to standard eigenproblem
  | Time :     0.000 s
  Finished solving standard eigenproblem
  | Time :     0.001 s
  Finished back-transformation of eigenvectors
  | Time :     0.000 s

  Obtaining occupation numbers and chemical potential using ELSI.
  | Chemical potential (Fermi level):    -3.64219318 eV
  What follows are estimated values for band gap, HOMO, LUMO, etc.
  | They are estimated on a discrete k-point grid and not necessarily exact.
  | For converged numbers, create a DOS and/or band structure plot on a denser k-grid.

  Highest occupied state (VBM) at     -4.48524267 eV (relative to internal zero)
  | Occupation number:      2.00000000
  | K-point:     204 at    0.636364    0.681818    0.000000 (in units of recip. lattice)

  Lowest unoccupied state (CBM) at    -3.59438493 eV (relative to internal zero)
  | Occupation number:      0.00000000
  | K-point:     117 at    0.318182    0.318182    0.000000 (in units of recip. lattice)

  ESTIMATED overall HOMO-LUMO gap:      0.89085774 eV between HOMO at k-point 204 and LUMO at k-point 117
  | This appears to be an indirect band gap.
  | Smallest direct gap :      0.89085851 eV for k_point 204 at    0.318182    0.318182    0.000000 (in units of recip. lattice)
  The gap value is above 0.2 eV. Unless you are using a very sparse k-point grid,
  this system is most likely an insulator or a semiconductor.

  Total energy components:
  | Sum of eigenvalues            :         -43.49156678 Ha       -1183.46574613 eV
  | XC energy correction          :         -10.84190134 Ha        -295.02314603 eV
  | XC potential correction       :          13.92859793 Ha         379.01643376 eV
  | Free-atom electrostatic energy:         -33.32005150 Ha        -906.68473292 eV
  | Hartree energy correction     :          -2.50059496 Ha         -68.04465097 eV
  | Entropy correction            :          -0.00000000 Ha          -0.00000000 eV
  | ---------------------------
  | Total energy                  :         -76.22551665 Ha       -2074.20184229 eV
  | Total energy, T -> 0          :         -76.22551665 Ha       -2074.20184229 eV  <-- do not rely on this value for anything but (periodic) metals
  | Electronic free energy        :         -76.22551665 Ha       -2074.20184229 eV

  Derived energy quantities:
  | Kinetic energy                :          76.30135732 Ha        2076.26557180 eV
  | Electrostatic energy          :        -141.68497263 Ha       -3855.44426806 eV
  | Energy correction for multipole
  | error in Hartree potential    :          -0.00930585 Ha          -0.25322511 eV
  | Sum of eigenvalues per atom                           :        -591.73287306 eV
  | Total energy (T->0) per atom                          :       -1037.10092115 eV  <-- do not rely on this value for anything but (periodic) metals
  | Electronic free energy per atom                       :       -1037.10092115 eV

  Self-consistency convergence accuracy:
  | Change of charge density      :  0.2213E+00
  | Change of sum of eigenvalues  :  0.6426E+02 eV
  | Change of total energy        :  0.1085E+01 eV

  End self-consistency iteration #     2       :  max(cpu_time)    wall_clock(cpu1)
  | Time for this iteration                    :        1.107 s           1.107 s
  | Charge density update                      :        0.604 s           0.604 s
  | Density mixing & preconditioning           :        0.025 s           0.025 s
  | Hartree multipole update                   :        0.002 s           0.001 s
  | Hartree multipole summation                :        0.143 s           0.143 s
  | Integration                                :        0.309 s           0.309 s
  | Solution of K.-S. eqns.                    :        0.024 s           0.024 s
  | Total energy evaluation                    :        0.000 s           0.000 s

  Partial memory accounting:
  | Current value for overall tracked memory usage:
  |   Minimum:        1.561 MB (on task  0)
  |   Maximum:        1.575 MB (on task  1)
  |   Average:        1.563 MB
  | Peak value for overall tracked memory usage:
  |   Minimum:       18.989 MB (on task 22 after allocating gradient_basis_wave)
  |   Maximum:       19.879 MB (on task  9 after allocating gradient_basis_wave)
  |   Average:       19.407 MB
  | Largest tracked array allocation so far:
  |   Minimum:        8.784 MB (hamiltonian_shell on task 22)
  |   Maximum:        9.383 MB (hamiltonian_shell on task  9)
  |   Average:        9.063 MB
  Note:  These values currently only include a subset of arrays which are explicitly tracked.
  The "true" memory usage will be greater.
------------------------------------------------------------

------------------------------------------------------------
          Begin self-consistency iteration #    3

  Date     :  20200319, Time     :  194119.995
------------------------------------------------------------
  Evaluating new KS density using the density matrix
  Evaluating density matrix
  Time summed over all CPUs for getting density from density matrix: real work       13.257 s, elapsed       14.376 s
  Integration grid: deviation in total charge (<rho> - N_e) =   1.705303E-13
  Pulay mixing of updated and previous charge densities.
  Renormalizing the density to the exact electron count on the 3D integration grid.
  | Formal number of electrons (from input files) :      12.0000000000
  | Integrated number of electrons on 3D grid     :      12.0001049314
  | Charge integration error                      :       0.0001049314
  | Normalization factor for density and gradient :       0.9999912558

  Evaluating partitioned Hartree potential by multipole expansion.
  | Original multipole sum: apparent total charge =   0.715162E-15
  | Sum of charges compensated after spline to logarithmic grids =   0.752156E-06
  | Analytical far-field extrapolation by fixed multipoles:
  | Hartree multipole sum: apparent total charge =   0.000000E+00
  Summing up the Hartree potential.
  Time summed over all CPUs for potential: real work        2.953 s, elapsed        3.147 s
  | RMS charge density error from multipole expansion :   0.673197E-02
  | Average real-space part of the electrostatic potential :      0.00208504 eV

  Integrating Hamiltonian matrix: batch-based integration.
  Time summed over all CPUs for integration: real work        6.731 s, elapsed        7.286 s

  Updating Kohn-Sham eigenvalues and eigenvectors using ELSI and the (modified) LAPACK eigensolver.
  Starting LAPACK eigensolver
  Finished Cholesky decomposition
  | Time :     0.000 s
  Finished transformation to standard eigenproblem
  | Time :     0.001 s
  Finished solving standard eigenproblem
  | Time :     0.001 s
  Finished back-transformation of eigenvectors
  | Time :     0.000 s

  Obtaining occupation numbers and chemical potential using ELSI.
  | Chemical potential (Fermi level):    -3.84521001 eV
  What follows are estimated values for band gap, HOMO, LUMO, etc.
  | They are estimated on a discrete k-point grid and not necessarily exact.
  | For converged numbers, create a DOS and/or band structure plot on a denser k-grid.

  Highest occupied state (VBM) at     -4.68676437 eV (relative to internal zero)
  | Occupation number:      2.00000000
  | K-point:     204 at    0.636364    0.681818    0.000000 (in units of recip. lattice)

  Lowest unoccupied state (CBM) at    -3.79745424 eV (relative to internal zero)
  | Occupation number:      0.00000000
  | K-point:     118 at    0.318182    0.363636    0.000000 (in units of recip. lattice)

  ESTIMATED overall HOMO-LUMO gap:      0.88931013 eV between HOMO at k-point 204 and LUMO at k-point 118
  | This appears to be an indirect band gap.
  | Smallest direct gap :      0.88931249 eV for k_point 204 at    0.318182    0.363636    0.000000 (in units of recip. lattice)
  The gap value is above 0.2 eV. Unless you are using a very sparse k-point grid,
  this system is most likely an insulator or a semiconductor.

  Checking to see if s.c.f. parameters should be adjusted.
  The system likely has a gap. Increased the default Pulay mixing parameter (charge_mix_param). Value:   0.200000 .
  Kept the default occupation width. Value:   0.010000 eV.

  Total energy components:
  | Sum of eigenvalues            :         -43.62609496 Ha       -1187.12644423 eV
  | XC energy correction          :         -10.83073577 Ha        -294.71931553 eV
  | XC potential correction       :          13.91450494 Ha         378.63294406 eV
  | Free-atom electrostatic energy:         -33.32005150 Ha        -906.68473292 eV
  | Hartree energy correction     :          -2.36300961 Ha         -64.30076310 eV
  | Entropy correction            :          -0.00000000 Ha          -0.00000000 eV
  | ---------------------------
  | Total energy                  :         -76.22538690 Ha       -2074.19831173 eV
  | Total energy, T -> 0          :         -76.22538690 Ha       -2074.19831173 eV  <-- do not rely on this value for anything but (periodic) metals
  | Electronic free energy        :         -76.22538690 Ha       -2074.19831173 eV

  Derived energy quantities:
  | Kinetic energy                :          76.21642050 Ha        2073.95432348 eV
  | Electrostatic energy          :        -141.61107163 Ha       -3853.43331968 eV
  | Energy correction for multipole
  | error in Hartree potential    :          -0.00947412 Ha          -0.25780400 eV
  | Sum of eigenvalues per atom                           :        -593.56322212 eV
  | Total energy (T->0) per atom                          :       -1037.09915586 eV  <-- do not rely on this value for anything but (periodic) metals
  | Electronic free energy per atom                       :       -1037.09915586 eV

  Self-consistency convergence accuracy:
  | Change of charge density      :  0.2988E-01
  | Change of sum of eigenvalues  : -0.3661E+01 eV
  | Change of total energy        :  0.3531E-02 eV

  End self-consistency iteration #     3       :  max(cpu_time)    wall_clock(cpu1)
  | Time for this iteration                    :        1.107 s           1.107 s
  | Charge density update                      :        0.603 s           0.603 s
  | Density mixing & preconditioning           :        0.026 s           0.026 s
  | Hartree multipole update                   :        0.002 s           0.002 s
  | Hartree multipole summation                :        0.143 s           0.143 s
  | Integration                                :        0.309 s           0.308 s
  | Solution of K.-S. eqns.                    :        0.024 s           0.024 s
  | Total energy evaluation                    :        0.000 s           0.000 s

  Partial memory accounting:
  | Current value for overall tracked memory usage:
  |   Minimum:        1.561 MB (on task  0)
  |   Maximum:        1.575 MB (on task  1)
  |   Average:        1.563 MB
  | Peak value for overall tracked memory usage:
  |   Minimum:       18.990 MB (on task 22 after allocating gradient_basis_wave)
  |   Maximum:       19.879 MB (on task  9 after allocating gradient_basis_wave)
  |   Average:       19.407 MB
  | Largest tracked array allocation so far:
  |   Minimum:        8.784 MB (hamiltonian_shell on task 22)
  |   Maximum:        9.383 MB (hamiltonian_shell on task  9)
  |   Average:        9.063 MB
  Note:  These values currently only include a subset of arrays which are explicitly tracked.
  The "true" memory usage will be greater.
------------------------------------------------------------

------------------------------------------------------------
          Begin self-consistency iteration #    4

  Date     :  20200319, Time     :  194121.102
------------------------------------------------------------
  Evaluating new KS density using the density matrix
  Evaluating density matrix
  Time summed over all CPUs for getting density from density matrix: real work       13.257 s, elapsed       14.434 s
  Integration grid: deviation in total charge (<rho> - N_e) =   1.794120E-13
  Pulay mixing of updated and previous charge densities.
  Renormalizing the density to the exact electron count on the 3D integration grid.
  | Formal number of electrons (from input files) :      12.0000000000
  | Integrated number of electrons on 3D grid     :      11.9998863539
  | Charge integration error                      :      -0.0001136461
  | Normalization factor for density and gradient :       1.0000094706

  Evaluating partitioned Hartree potential by multipole expansion.
  | Original multipole sum: apparent total charge =  -0.700698E-15
  | Sum of charges compensated after spline to logarithmic grids =   0.843510E-06
  | Analytical far-field extrapolation by fixed multipoles:
  | Hartree multipole sum: apparent total charge =   0.000000E+00
  Summing up the Hartree potential.
  Time summed over all CPUs for potential: real work        2.971 s, elapsed        3.170 s
  | RMS charge density error from multipole expansion :   0.796451E-02
  | Average real-space part of the electrostatic potential :      0.00406171 eV

  Integrating Hamiltonian matrix: batch-based integration.
  Time summed over all CPUs for integration: real work        6.730 s, elapsed        7.316 s

  Updating Kohn-Sham eigenvalues and eigenvectors using ELSI and the (modified) LAPACK eigensolver.
  Starting LAPACK eigensolver
  Finished Cholesky decomposition
  | Time :     0.000 s
  Finished transformation to standard eigenproblem
  | Time :     0.000 s
  Finished solving standard eigenproblem
  | Time :     0.001 s
  Finished back-transformation of eigenvectors
  | Time :     0.000 s

  Obtaining occupation numbers and chemical potential using ELSI.
  | Chemical potential (Fermi level):    -3.99111690 eV
  What follows are estimated values for band gap, HOMO, LUMO, etc.
  | They are estimated on a discrete k-point grid and not necessarily exact.
  | For converged numbers, create a DOS and/or band structure plot on a denser k-grid.

  Highest occupied state (VBM) at     -4.83158115 eV (relative to internal zero)
  | Occupation number:      2.00000000
  | K-point:     117 at    0.318182    0.318182    0.000000 (in units of recip. lattice)

  Lowest unoccupied state (CBM) at    -3.94308860 eV (relative to internal zero)
  | Occupation number:      0.00000000
  | K-point:     117 at    0.318182    0.318182    0.000000 (in units of recip. lattice)

  ESTIMATED overall HOMO-LUMO gap:      0.88849254 eV between HOMO at k-point 117 and LUMO at k-point 117
  | This appears to be a direct band gap.
  The gap value is above 0.2 eV. Unless you are using a very sparse k-point grid,
  this system is most likely an insulator or a semiconductor.

  Total energy components:
  | Sum of eigenvalues            :         -43.75236921 Ha       -1190.56254135 eV
  | XC energy correction          :         -10.81534604 Ha        -294.30053973 eV
  | XC potential correction       :          13.89540745 Ha         378.11327502 eV
  | Free-atom electrostatic energy:         -33.32005150 Ha        -906.68473292 eV
  | Hartree energy correction     :          -2.23311277 Ha         -60.76609021 eV
  | Entropy correction            :          -0.00000000 Ha          -0.00000000 eV
  | ---------------------------
  | Total energy                  :         -76.22547207 Ha       -2074.20062919 eV
  | Total energy, T -> 0          :         -76.22547207 Ha       -2074.20062919 eV  <-- do not rely on this value for anything but (periodic) metals
  | Electronic free energy        :         -76.22547207 Ha       -2074.20062919 eV

  Derived energy quantities:
  | Kinetic energy                :          75.97880006 Ha        2067.48834219 eV
  | Electrostatic energy          :        -141.38892608 Ha       -3847.38843166 eV
  | Energy correction for multipole
  | error in Hartree potential    :          -0.01119093 Ha          -0.30452073 eV
  | Sum of eigenvalues per atom                           :        -595.28127068 eV
  | Total energy (T->0) per atom                          :       -1037.10031460 eV  <-- do not rely on this value for anything but (periodic) metals
  | Electronic free energy per atom                       :       -1037.10031460 eV

  Self-consistency convergence accuracy:
  | Change of charge density      :  0.2347E-01
  | Change of sum of eigenvalues  : -0.3436E+01 eV
  | Change of total energy        : -0.2317E-02 eV

  End self-consistency iteration #     4       :  max(cpu_time)    wall_clock(cpu1)
  | Time for this iteration                    :        1.111 s           1.112 s
  | Charge density update                      :        0.606 s           0.606 s
  | Density mixing & preconditioning           :        0.026 s           0.026 s
  | Hartree multipole update                   :        0.002 s           0.001 s
  | Hartree multipole summation                :        0.144 s           0.144 s
  | Integration                                :        0.310 s           0.310 s
  | Solution of K.-S. eqns.                    :        0.024 s           0.024 s
  | Total energy evaluation                    :        0.000 s           0.001 s

  Partial memory accounting:
  | Current value for overall tracked memory usage:
  |   Minimum:        1.561 MB (on task  0)
  |   Maximum:        1.575 MB (on task  1)
  |   Average:        1.563 MB
  | Peak value for overall tracked memory usage:
  |   Minimum:       18.990 MB (on task 22 after allocating gradient_basis_wave)
  |   Maximum:       19.879 MB (on task  9 after allocating gradient_basis_wave)
  |   Average:       19.407 MB
  | Largest tracked array allocation so far:
  |   Minimum:        8.784 MB (hamiltonian_shell on task 22)
  |   Maximum:        9.383 MB (hamiltonian_shell on task  9)
  |   Average:        9.063 MB
  Note:  These values currently only include a subset of arrays which are explicitly tracked.
  The "true" memory usage will be greater.
------------------------------------------------------------

------------------------------------------------------------
          Begin self-consistency iteration #    5

  Date     :  20200319, Time     :  194122.214
------------------------------------------------------------
  Evaluating new KS density using the density matrix
  Evaluating density matrix
  Time summed over all CPUs for getting density from density matrix: real work       13.259 s, elapsed       14.359 s
  Integration grid: deviation in total charge (<rho> - N_e) =   1.385558E-13
  Pulay mixing of updated and previous charge densities.
  Renormalizing the density to the exact electron count on the 3D integration grid.
  | Formal number of electrons (from input files) :      12.0000000000
  | Integrated number of electrons on 3D grid     :      12.0006053643
  | Charge integration error                      :       0.0006053643
  | Normalization factor for density and gradient :       0.9999495555

  Evaluating partitioned Hartree potential by multipole expansion.
  | Original multipole sum: apparent total charge =   0.264677E-14
  | Sum of charges compensated after spline to logarithmic grids =   0.834921E-06
  | Analytical far-field extrapolation by fixed multipoles:
  | Hartree multipole sum: apparent total charge =   0.000000E+00
  Summing up the Hartree potential.
  Time summed over all CPUs for potential: real work        2.971 s, elapsed        3.170 s
  | RMS charge density error from multipole expansion :   0.808434E-02
  | Average real-space part of the electrostatic potential :      0.00428019 eV

  Integrating Hamiltonian matrix: batch-based integration.
  Time summed over all CPUs for integration: real work        6.736 s, elapsed        7.283 s

  Updating Kohn-Sham eigenvalues and eigenvectors using ELSI and the (modified) LAPACK eigensolver.
  Starting LAPACK eigensolver
  Finished Cholesky decomposition
  | Time :     0.000 s
  Finished transformation to standard eigenproblem
  | Time :     0.000 s
  Finished solving standard eigenproblem
  | Time :     0.001 s
  Finished back-transformation of eigenvectors
  | Time :     0.000 s

  Obtaining occupation numbers and chemical potential using ELSI.
  | Chemical potential (Fermi level):    -3.99459510 eV
  What follows are estimated values for band gap, HOMO, LUMO, etc.
  | They are estimated on a discrete k-point grid and not necessarily exact.
  | For converged numbers, create a DOS and/or band structure plot on a denser k-grid.

  Highest occupied state (VBM) at     -4.83497273 eV (relative to internal zero)
  | Occupation number:      2.00000000
  | K-point:     118 at    0.318182    0.363636    0.000000 (in units of recip. lattice)

  Lowest unoccupied state (CBM) at    -3.94640283 eV (relative to internal zero)
  | Occupation number:      0.00000000
  | K-point:     118 at    0.318182    0.363636    0.000000 (in units of recip. lattice)

  ESTIMATED overall HOMO-LUMO gap:      0.88856990 eV between HOMO at k-point 118 and LUMO at k-point 118
  | This appears to be a direct band gap.
  The gap value is above 0.2 eV. Unless you are using a very sparse k-point grid,
  this system is most likely an insulator or a semiconductor.

  Total energy components:
  | Sum of eigenvalues            :         -43.75137028 Ha       -1190.53535918 eV
  | XC energy correction          :         -10.81622349 Ha        -294.32441634 eV
  | XC potential correction       :          13.89639582 Ha         378.14016981 eV
  | Free-atom electrostatic energy:         -33.32005150 Ha        -906.68473292 eV
  | Hartree energy correction     :          -2.23421905 Ha         -60.79619359 eV
  | Entropy correction            :          -0.00000000 Ha          -0.00000000 eV
  | ---------------------------
  | Total energy                  :         -76.22546851 Ha       -2074.20053222 eV
  | Total energy, T -> 0          :         -76.22546851 Ha       -2074.20053222 eV  <-- do not rely on this value for anything but (periodic) metals
  | Electronic free energy        :         -76.22546851 Ha       -2074.20053222 eV

  Derived energy quantities:
  | Kinetic energy                :          75.98534332 Ha        2067.66639332 eV
  | Electrostatic energy          :        -141.39458833 Ha       -3847.54250920 eV
  | Energy correction for multipole
  | error in Hartree potential    :          -0.01135850 Ha          -0.30908044 eV
  | Sum of eigenvalues per atom                           :        -595.26767959 eV
  | Total energy (T->0) per atom                          :       -1037.10026611 eV  <-- do not rely on this value for anything but (periodic) metals
  | Electronic free energy per atom                       :       -1037.10026611 eV

  Self-consistency convergence accuracy:
  | Change of charge density      :  0.2735E-02
  | Change of sum of eigenvalues  :  0.2718E-01 eV
  | Change of total energy        :  0.9697E-04 eV

  End self-consistency iteration #     5       :  max(cpu_time)    wall_clock(cpu1)
  | Time for this iteration                    :        1.107 s           1.107 s
  | Charge density update                      :        0.603 s           0.603 s
  | Density mixing & preconditioning           :        0.025 s           0.025 s
  | Hartree multipole update                   :        0.002 s           0.002 s
  | Hartree multipole summation                :        0.144 s           0.144 s
  | Integration                                :        0.309 s           0.308 s
  | Solution of K.-S. eqns.                    :        0.024 s           0.024 s
  | Total energy evaluation                    :        0.000 s           0.000 s

  Partial memory accounting:
  | Current value for overall tracked memory usage:
  |   Minimum:        1.561 MB (on task  0)
  |   Maximum:        1.575 MB (on task  1)
  |   Average:        1.564 MB
  | Peak value for overall tracked memory usage:
  |   Minimum:       18.990 MB (on task 22 after allocating gradient_basis_wave)
  |   Maximum:       19.879 MB (on task  9 after allocating gradient_basis_wave)
  |   Average:       19.407 MB
  | Largest tracked array allocation so far:
  |   Minimum:        8.784 MB (hamiltonian_shell on task 22)
  |   Maximum:        9.383 MB (hamiltonian_shell on task  9)
  |   Average:        9.063 MB
  Note:  These values currently only include a subset of arrays which are explicitly tracked.
  The "true" memory usage will be greater.
------------------------------------------------------------

------------------------------------------------------------
          Begin self-consistency iteration #    6

  Date     :  20200319, Time     :  194123.321
------------------------------------------------------------
  Evaluating new KS density using the density matrix
  Evaluating density matrix
  Time summed over all CPUs for getting density from density matrix: real work       13.262 s, elapsed       14.400 s
  Integration grid: deviation in total charge (<rho> - N_e) =   1.154632E-13
  Pulay mixing of updated and previous charge densities.
  Renormalizing the density to the exact electron count on the 3D integration grid.
  | Formal number of electrons (from input files) :      12.0000000000
  | Integrated number of electrons on 3D grid     :      11.9999142685
  | Charge integration error                      :      -0.0000857315
  | Normalization factor for density and gradient :       1.0000071443

  Evaluating partitioned Hartree potential by multipole expansion.
  | Original multipole sum: apparent total charge =   0.249225E-14
  | Sum of charges compensated after spline to logarithmic grids =   0.834924E-06
  | Analytical far-field extrapolation by fixed multipoles:
  | Hartree multipole sum: apparent total charge =   0.000000E+00
  Summing up the Hartree potential.
  Time summed over all CPUs for potential: real work        2.974 s, elapsed        3.173 s
  | RMS charge density error from multipole expansion :   0.806431E-02
  | Average real-space part of the electrostatic potential :      0.00423587 eV

  Integrating Hamiltonian matrix: batch-based integration.
  Time summed over all CPUs for integration: real work        6.731 s, elapsed        7.289 s

  Updating Kohn-Sham eigenvalues and eigenvectors using ELSI and the (modified) LAPACK eigensolver.
  Starting LAPACK eigensolver
  Finished Cholesky decomposition
  | Time :     0.000 s
  Finished transformation to standard eigenproblem
  | Time :     0.000 s
  Finished solving standard eigenproblem
  | Time :     0.001 s
  Finished back-transformation of eigenvectors
  | Time :     0.000 s

  Obtaining occupation numbers and chemical potential using ELSI.
  | Chemical potential (Fermi level):    -3.99907989 eV
  What follows are estimated values for band gap, HOMO, LUMO, etc.
  | They are estimated on a discrete k-point grid and not necessarily exact.
  | For converged numbers, create a DOS and/or band structure plot on a denser k-grid.

  Highest occupied state (VBM) at     -4.83982778 eV (relative to internal zero)
  | Occupation number:      2.00000000
  | K-point:     117 at    0.318182    0.318182    0.000000 (in units of recip. lattice)

  Lowest unoccupied state (CBM) at    -3.95133683 eV (relative to internal zero)
  | Occupation number:      0.00000000
  | K-point:     117 at    0.318182    0.318182    0.000000 (in units of recip. lattice)

  ESTIMATED overall HOMO-LUMO gap:      0.88849094 eV between HOMO at k-point 117 and LUMO at k-point 117
  | This appears to be a direct band gap.
  The gap value is above 0.2 eV. Unless you are using a very sparse k-point grid,
  this system is most likely an insulator or a semiconductor.

  Total energy components:
  | Sum of eigenvalues            :         -43.75523045 Ha       -1190.64039956 eV
  | XC energy correction          :         -10.81585476 Ha        -294.31438259 eV
  | XC potential correction       :          13.89594407 Ha         378.12787703 eV
  | Free-atom electrostatic energy:         -33.32005150 Ha        -906.68473292 eV
  | Hartree energy correction     :          -2.23027968 Ha         -60.68899779 eV
  | Entropy correction            :          -0.00000000 Ha          -0.00000000 eV
  | ---------------------------
  | Total energy                  :         -76.22547231 Ha       -2074.20063583 eV
  | Total energy, T -> 0          :         -76.22547231 Ha       -2074.20063583 eV  <-- do not rely on this value for anything but (periodic) metals
  | Electronic free energy        :         -76.22547231 Ha       -2074.20063583 eV

  Derived energy quantities:
  | Kinetic energy                :          75.98403627 Ha        2067.63082693 eV
[...]
  | Occupation number:      2.00000000
  | K-point:     117 at    0.318182    0.318182    0.000000 (in units of recip. lattice)

  Lowest unoccupied state (CBM) at    -3.85555783 eV (relative to internal zero)
  | Occupation number:      0.00000000
  | K-point:     117 at    0.318182    0.318182    0.000000 (in units of recip. lattice)

  ESTIMATED overall HOMO-LUMO gap:      0.88887500 eV between HOMO at k-point 117 and LUMO at k-point 117
  | This appears to be a direct band gap.
  The gap value is above 0.2 eV. Unless you are using a very sparse k-point grid,
  this system is most likely an insulator or a semiconductor.

  Total energy components:
  | Sum of eigenvalues            :         -43.70663050 Ha       -1189.31792765 eV
  | XC energy correction          :         -10.81823400 Ha        -294.37912504 eV
  | XC potential correction       :          13.89904659 Ha         378.21230085 eV
  | Free-atom electrostatic energy:         -33.32005150 Ha        -906.68473292 eV
  | Hartree energy correction     :          -2.27959718 Ha         -62.03099531 eV
  | Entropy correction            :          -0.00000000 Ha          -0.00000000 eV
  | ---------------------------
  | Total energy                  :         -76.22546659 Ha       -2074.20048007 eV
  | Total energy, T -> 0          :         -76.22546659 Ha       -2074.20048007 eV  <-- do not rely on this value for anything but (periodic) metals
  | Electronic free energy        :         -76.22546659 Ha       -2074.20048007 eV

  Derived energy quantities:
  | Kinetic energy                :          75.98970516 Ha        2067.78508522 eV
  | Electrostatic energy          :        -141.39693775 Ha       -3847.60644025 eV
  | Energy correction for multipole
  | error in Hartree potential    :          -0.01146726 Ha          -0.31203996 eV
  | Sum of eigenvalues per atom                           :        -594.65896383 eV
  | Total energy (T->0) per atom                          :       -1037.10024004 eV  <-- do not rely on this value for anything but (periodic) metals
  | Electronic free energy per atom                       :       -1037.10024004 eV

  Self-consistency convergence accuracy:
  | Change of charge density      :  0.2117E-05
  | Change of sum of eigenvalues  :  0.8534E-05 eV
  | Change of total energy        : -0.6032E-10 eV

  End self-consistency iteration #    15       :  max(cpu_time)    wall_clock(cpu1)
  | Time for this iteration                    :        1.108 s           1.108 s
  | Charge density update                      :        0.604 s           0.604 s
  | Density mixing & preconditioning           :        0.025 s           0.025 s
  | Hartree multipole update                   :        0.002 s           0.002 s
  | Hartree multipole summation                :        0.144 s           0.144 s
  | Integration                                :        0.309 s           0.309 s
  | Solution of K.-S. eqns.                    :        0.024 s           0.024 s
  | Total energy evaluation                    :        0.000 s           0.000 s

  Partial memory accounting:
  | Current value for overall tracked memory usage:
  |   Minimum:        1.561 MB (on task  0)
  |   Maximum:        1.576 MB (on task  1)
  |   Average:        1.564 MB
  | Peak value for overall tracked memory usage:
  |   Minimum:       18.990 MB (on task 22 after allocating gradient_basis_wave)
  |   Maximum:       19.879 MB (on task  9 after allocating gradient_basis_wave)
  |   Average:       19.408 MB
  | Largest tracked array allocation so far:
  |   Minimum:        8.784 MB (hamiltonian_shell on task 22)
  |   Maximum:        9.383 MB (hamiltonian_shell on task  9)
  |   Average:        9.063 MB
  Note:  These values currently only include a subset of arrays which are explicitly tracked.
  The "true" memory usage will be greater.
------------------------------------------------------------

------------------------------------------------------------
          Begin self-consistency iteration #   16

  Date     :  20200319, Time     :  194134.409
------------------------------------------------------------
  Evaluating new KS density using the density matrix
  Evaluating density matrix
  Time summed over all CPUs for getting density from density matrix: real work       13.303 s, elapsed       14.503 s
  Integration grid: deviation in total charge (<rho> - N_e) =   1.758593E-13
  Pulay mixing of updated and previous charge densities.
  Renormalizing the density to the exact electron count on the 3D integration grid.
  | Formal number of electrons (from input files) :      12.0000000000
  | Integrated number of electrons on 3D grid     :      12.0000000091
  | Charge integration error                      :       0.0000000091
  | Normalization factor for density and gradient :       0.9999999992

  Evaluating partitioned Hartree potential by multipole expansion.
  | Original multipole sum: apparent total charge =   0.526517E-14
  | Sum of charges compensated after spline to logarithmic grids =   0.856282E-06
  | Analytical far-field extrapolation by fixed multipoles:
  | Hartree multipole sum: apparent total charge =   0.000000E+00
  Summing up the Hartree potential.
  Time summed over all CPUs for potential: real work        2.977 s, elapsed        3.176 s
  | RMS charge density error from multipole expansion :   0.811275E-02
  | Average real-space part of the electrostatic potential :      0.00369133 eV

  Integrating Hamiltonian matrix: batch-based integration.
  Time summed over all CPUs for integration: real work        6.732 s, elapsed        7.284 s

  Updating Kohn-Sham eigenvalues and eigenvectors using ELSI and the (modified) LAPACK eigensolver.
  Starting LAPACK eigensolver
  Finished Cholesky decomposition
  | Time :     0.001 s
  Finished transformation to standard eigenproblem
  | Time :     0.000 s
  Finished solving standard eigenproblem
  | Time :     0.001 s
  Finished back-transformation of eigenvectors
  | Time :     0.000 s

  Obtaining occupation numbers and chemical potential using ELSI.
  | Chemical potential (Fermi level):    -3.90332408 eV
  What follows are estimated values for band gap, HOMO, LUMO, etc.
  | They are estimated on a discrete k-point grid and not necessarily exact.
  | For converged numbers, create a DOS and/or band structure plot on a denser k-grid.

  Highest occupied state (VBM) at     -4.74443322 eV (relative to internal zero)
  | Occupation number:      2.00000000
  | K-point:     118 at    0.318182    0.363636    0.000000 (in units of recip. lattice)

  Lowest unoccupied state (CBM) at    -3.85555822 eV (relative to internal zero)
  | Occupation number:      0.00000000
  | K-point:     118 at    0.318182    0.363636    0.000000 (in units of recip. lattice)

  ESTIMATED overall HOMO-LUMO gap:      0.88887500 eV between HOMO at k-point 118 and LUMO at k-point 118
  | This appears to be a direct band gap.
  The gap value is above 0.2 eV. Unless you are using a very sparse k-point grid,
  this system is most likely an insulator or a semiconductor.

  Total energy components:
  | Sum of eigenvalues            :         -43.70663070 Ha       -1189.31793330 eV
  | XC energy correction          :         -10.81823400 Ha        -294.37912500 eV
  | XC potential correction       :          13.89904658 Ha         378.21230079 eV
  | Free-atom electrostatic energy:         -33.32005150 Ha        -906.68473292 eV
  | Hartree energy correction     :          -2.27959697 Ha         -62.03098964 eV
  | Entropy correction            :          -0.00000000 Ha          -0.00000000 eV
  | ---------------------------
  | Total energy                  :         -76.22546659 Ha       -2074.20048007 eV
  | Total energy, T -> 0          :         -76.22546659 Ha       -2074.20048007 eV  <-- do not rely on this value for anything but (periodic) metals
  | Electronic free energy        :         -76.22546659 Ha       -2074.20048007 eV

  Derived energy quantities:
  | Kinetic energy                :          75.98970528 Ha        2067.78508835 eV
  | Electrostatic energy          :        -141.39693787 Ha       -3847.60644342 eV
  | Energy correction for multipole
  | error in Hartree potential    :          -0.01146726 Ha          -0.31204000 eV
  | Sum of eigenvalues per atom                           :        -594.65896665 eV
  | Total energy (T->0) per atom                          :       -1037.10024004 eV  <-- do not rely on this value for anything but (periodic) metals
  | Electronic free energy per atom                       :       -1037.10024004 eV

  Self-consistency convergence accuracy:
  | Change of charge density      :  0.6690E-06
  | Change of sum of eigenvalues  : -0.5647E-05 eV
  | Change of total energy        : -0.9474E-09 eV

  Preliminary charge convergence reached. Turning off preconditioner.

  Writing Kohn-Sham eigenvalues.
  K-point:       1 at    0.000000    0.000000    0.000000 (in units of recip. lattice)

  State    Occupation    Eigenvalue [Ha]    Eigenvalue [eV]
      1       2.00000          -9.936375         -270.38252
      2       2.00000          -9.935412         -270.35632
      3       2.00000          -0.877656          -23.88223
      4       2.00000          -0.439730          -11.96565
      5       2.00000          -0.270451           -7.35934
      6       2.00000          -0.270450           -7.35932
      7       0.00000           0.067443            1.83521
      8       0.00000           0.073361            1.99624
      9       0.00000           0.149227            4.06066
     10       0.00000           0.149229            4.06074
     11       0.00000           0.265550            7.22597
     12       0.00000           0.308105            8.38396

  What follows are estimated values for band gap, HOMO, LUMO, etc.
  | They are estimated on a discrete k-point grid and not necessarily exact.
  | For converged numbers, create a DOS and/or band structure plot on a denser k-grid.

  Highest occupied state (VBM) at     -4.74443322 eV (relative to internal zero)
  | Occupation number:      2.00000000
  | K-point:     118 at    0.318182    0.363636    0.000000 (in units of recip. lattice)

  Lowest unoccupied state (CBM) at    -3.85555822 eV (relative to internal zero)
  | Occupation number:      0.00000000
  | K-point:     118 at    0.318182    0.363636    0.000000 (in units of recip. lattice)

  ESTIMATED overall HOMO-LUMO gap:      0.88887500 eV between HOMO at k-point 118 and LUMO at k-point 118
  | This appears to be a direct band gap.
  The gap value is above 0.2 eV. Unless you are using a very sparse k-point grid,
  this system is most likely an insulator or a semiconductor.

  Self-consistency cycle converged.

  End self-consistency iteration #    16       :  max(cpu_time)    wall_clock(cpu1)
  | Time for this iteration                    :        1.112 s           1.112 s
  | Charge density update                      :        0.609 s           0.609 s
  | Density mixing                             :        0.025 s           0.024 s
  | Hartree multipole update                   :        0.002 s           0.002 s
  | Hartree multipole summation                :        0.144 s           0.144 s
  | Integration                                :        0.309 s           0.309 s
  | Solution of K.-S. eqns.                    :        0.023 s           0.023 s
  | Total energy evaluation                    :        0.000 s           0.000 s

  Partial memory accounting:
  | Current value for overall tracked memory usage:
  |   Minimum:        1.561 MB (on task  0)
  |   Maximum:        1.576 MB (on task  1)
  |   Average:        1.564 MB
  | Peak value for overall tracked memory usage:
  |   Minimum:       18.990 MB (on task 22 after allocating gradient_basis_wave)
  |   Maximum:       19.879 MB (on task  9 after allocating gradient_basis_wave)
  |   Average:       19.408 MB
  | Largest tracked array allocation so far:
  |   Minimum:        8.784 MB (hamiltonian_shell on task 22)
  |   Maximum:        9.383 MB (hamiltonian_shell on task  9)
  |   Average:        9.063 MB
  Note:  These values currently only include a subset of arrays which are explicitly tracked.
  The "true" memory usage will be greater.
------------------------------------------------------------

  Energy and forces in a compact form:
  | Total energy uncorrected      :         -0.207420048007256E+04 eV
  | Total energy corrected        :         -0.207420048007256E+04 eV  <-- do not rely on this value for anything but (periodic) metals
  | Electronic free energy        :         -0.207420048007256E+04 eV

  ------------------------------------ 
  Start decomposition of the XC Energy 
  ------------------------------------ 
  X and C from original XC functional choice 
  Hartree-Fock Energy :          0.000000000 Ha              0.000000000 eV
  X Energy            :        -10.398425468 Ha           -282.955553606 eV
  C Energy            :         -0.419808533 Ha            -11.423571396 eV
  Total XC Energy     :        -10.818234001 Ha           -294.379125002 eV
  ------------------------------------ 
  LDA X and C from self-consistent density 
  X Energy LDA        :         -9.433955836 Ha           -256.710999596 eV
  C Energy LDA        :         -0.796098790 Ha            -21.662950280 eV
  ------------------------------------ 
  End decomposition of the XC Energy 
  ------------------------------------ 

------------------------------------------------------------

------------------------------------------------------------------------------
  Final output of selected total energy values:

  The following output summarizes some interesting total energy values
  at the end of a run (AFTER all relaxation, molecular dynamics, etc.).

  | Total energy of the DFT / Hartree-Fock s.c.f. calculation      :          -2074.200480073 eV
  | Final zero-broadening corrected energy (caution - metals only) :          -2074.200480073 eV
  | For reference only, the value of 1 Hartree used in FHI-aims is :             27.211384500 eV
  | For reference only, the overall average (free atom contribution
  | + realspace contribution) of the electrostatic potential after
  | s.c.f. convergence is                                          :             -0.467386153 eV

  Before relying on these values, please be sure to understand exactly which
  total energy value is referred to by a given number. Different objects may
  all carry the same name 'total energy'. Definitions:

  Total energy of the DFT / Hartree-Fock s.c.f. calculation:
  | Note that this energy does not include ANY quantities calculated after the
  | s.c.f. cycle, in particular not ANY RPA, MP2, etc. many-body perturbation terms.

  Final zero-broadening corrected energy:
  | For metallic systems only, a broadening of the occupation numbers at the Fermi
  | level can be extrapolated back to zero broadening by an electron-gas inspired
  | formula. For all systems that are not real metals, this value can be
  | meaningless and should be avoided.

------------------------------------------------------------------------------
  Methods described in the following list of references were used in this FHI-aims run.
  If you publish the results, please make sure to cite these reference if they apply.
  FHI-aims is an academic code, and for our developers (often, Ph.D. students
  and postdocs), scientific credit in the community is essential.
  Thank you for helping us!

  For any use of FHI-aims, please cite:

    Volker Blum, Ralf Gehrke, Felix Hanke, Paula Havu, Ville Havu,
    Xinguo Ren, Karsten Reuter, and Matthias Scheffler
    'Ab initio molecular simulations with numeric atom-centered orbitals'
    Computer Physics Communications 180, 2175-2196 (2009)
    http://dx.doi.org/10.1016/j.cpc.2009.06.022


  The provided symmetry information was generated with SPGlib:

    Atsushi Togo, Yusuke Seto, Dimitar Pashov
    SPGlib 1.7.3 obtained from http://spglib.sourceforge.net
    Copyright (C) 2008 Atsushi Togo


  The ELSI infrastructure was used in your run to solve the Kohn-Sham electronic structure.
  Please check out http://elsi-interchange.org to learn more.
  If scalability is important for your project, please acknowledge ELSI by citing:

    V. W-z. Yu, F. Corsetti, A. Garcia, W. P. Huhn, M. Jacquelin, W. Jia,
    B. Lange, L. Lin, J. Lu, W. Mi, A. Seifitokaldani, A. Vazquez-Mayagoitia,
    C. Yang, H. Yang, and V. Blum
    'ELSI: A unified software interface for Kohn-Sham electronic structure solvers'
    Computer Physics Communications 222, 267-285 (2018).
    http://dx.doi.org/10.1016/j.cpc.2017.09.007


  For the real-space grid partitioning and parallelization used in this calculation, please cite:

    Ville Havu, Volker Blum, Paula Havu, and Matthias Scheffler,
    'Efficient O(N) integration for all-electron electronic structure calculation'
    'using numerically tabulated basis functions'
    Journal of Computational Physics 228, 8367-8379 (2009).
    http://dx.doi.org/10.1016/j.jcp.2009.08.008

  Of course, there are many other important community references, e.g., those cited in the
  above references. Our list is limited to references that describe implementations in the
  FHI-aims code. The reason is purely practical (length of this list) - please credit others as well.

------------------------------------------------------------
          Leaving FHI-aims.
          Date     :  20200319, Time     :  194135.535

          Computational steps:
          | Number of self-consistency cycles          :           16
          | Number of SCF (re)initializations          :            1

          Detailed time accounting                     :  max(cpu_time)    wall_clock(cpu1)
          | Total time                                 :       19.779 s          20.005 s
          | Preparation time                           :        0.147 s           0.170 s
          | Boundary condition initalization           :        0.770 s           0.773 s
          | Grid partitioning                          :        0.136 s           0.136 s
          | Preloading free-atom quantities on grid    :        0.009 s           0.010 s
          | Free-atom superposition energy             :        0.008 s           0.008 s
          | Total time for integrations                :        5.530 s           5.532 s
          | Total time for solution of K.-S. equations :        0.426 s           0.453 s
          | Total time for density update              :        9.695 s           9.696 s
          | Total time for mixing & preconditioning    :        0.407 s           0.406 s
          | Total time for Hartree multipole update    :        0.026 s           0.027 s
          | Total time for Hartree multipole sum       :        2.280 s           2.283 s
          | Total time for total energy evaluation     :        0.003 s           0.006 s
          | Total time for scaled ZORA corrections     :        0.000 s           0.000 s

          Partial memory accounting:
          | Residual value for overall tracked memory usage across tasks:     0.000000 MB (should be 0.000000 MB)
          | Peak values for overall tracked memory usage:
          |   Minimum:       18.990 MB (on task 22 after allocating gradient_basis_wave)
          |   Maximum:       19.879 MB (on task  9 after allocating gradient_basis_wave)
          |   Average:       19.408 MB
          | Largest tracked array allocation:
          |   Minimum:        8.784 MB (hamiltonian_shell on task 22)
          |   Maximum:        9.383 MB (hamiltonian_shell on task  9)
          |   Average:        9.063 MB
          Note:  These values currently only include a subset of arrays which are explicitly tracked.
          The "true" memory usage will be greater.

          Have a nice day.
------------------------------------------------------------
