------------------------------------------------------------
          Invoking FHI-aims ...

          When using FHI-aims, please cite the following reference:

            Volker Blum, Ralf Gehrke, Felix Hanke, Paula Havu,
            Ville Havu, Xinguo Ren, Karsten Reuter, and Matthias Scheffler,
            'Ab Initio Molecular Simulations with Numeric Atom-Centered Orbitals',
            Computer Physics Communications 180, 2175-2196 (2009)

          In addition, many other developments in FHI-aims are likely important for
          your particular application. A partial list of references is given at the end of
          this file. Thank you for giving credit to the authors of these developments.

          For any questions about FHI-aims, please visit our slack channel at

            https://fhi-aims.slack.com

          and our main development and support site at

            https://aims-git.rz-berlin.mpg.de .

          The latter site, in particular, has a wiki to collect information, as well
          as an issue tracker to log discussions, suggest improvements, and report issues
          or bugs. https://aims-git.rz-berlin.mpg.de is also the main development site
          of the project and all new and updated code versions can be obtained there.
          Please send an email to aims-coordinators@fhi-berlin.mpg.de and we will add
          you to these sites. They are for you and everyone is welcome there.

------------------------------------------------------------



  Date     :  20210131, Time     :  130337.329
  Time zero on CPU 1             :   0.246950000000000E-01  s.
  Internal wall clock time zero  :           381330217.329  s.

  FHI-aims created a unique identifier for this run for later identification
  aims_uuid : 959CD04F-C5F2-4748-A52B-1AAE5459DBD6

  Build configuration of the current instance of FHI-aims
  -------------------------------------------------------
  FHI-aims version      : 201122
  Commit number         : 9f287233b
  CMake host system     : Linux-4.19.128-microsoft-standard
  CMake version         : 3.19.1
  Fortran compiler      : /home/rkempt/miniconda3/envs/aims-env/bin/mpifort (GNU) version 7.3.0
  Fortran compiler flags: -O2 -ffree-line-length-none
  C compiler            : /usr/bin/gcc (GNU) version 9.3.0
  C compiler flags      : -O2 -funroll-loops -std=gnu99
  Using MPI
  Using LibXC
  Using i-PI
  Using RLSY
  Linking against: /home/rkempt/miniconda3/envs/aims-env/lib/libmkl_intel_lp64.so
                   /home/rkempt/miniconda3/envs/aims-env/lib/libmkl_sequential.so
                   /home/rkempt/miniconda3/envs/aims-env/lib/libmkl_core.so

  Using        4 parallel tasks.
  Task        0 on host DESKTOP-VF3RMOI reporting.
  Task        1 on host DESKTOP-VF3RMOI reporting.
  Task        2 on host DESKTOP-VF3RMOI reporting.
  Task        3 on host DESKTOP-VF3RMOI reporting.

  Performing system and environment tests:
  *** Environment variable OMP_NUM_THREADS is not set
  *** For performance reasons you might want to set it to 1
  | Checking for ScaLAPACK...
  | No ScaLAPACK compiled in.

  Obtaining array dimensions for all initial allocations:
  
  -----------------------------------------------------------------------
  Parsing control.in (first pass over file, find array dimensions only).
  The contents of control.in will be repeated verbatim below
  unless switched off by setting 'verbatim_writeout .false.' .
  in the first line of control.in .
  -----------------------------------------------------------------------
  
  #===============================================================================
  # FHI-aims file: ./control.in
  # Created using the Atomic Simulation Environment (ASE)
  # Tue Nov 10 17:29:52 2020
  #===============================================================================
  xc                                 pbe
  #include_spin_orbit
  check_stacksize .false.
  # Common choices of dispersion methods:
  # 	 vdw_correction_hirshfeld
  # 	 many_body_dispersion
  # 	 many_body_dispersion_nl 	 beta=0.81
  spin                               none
  k_grid                             12 12 12
  relativistic                       atomic_zora scalar
  output_level MD_light
  ### SCF settings
  adjust_scf 	 always 	 3
  # frozen_core_scf 	 .true.
  # charge_mix_param  0.05
  # occupation_type 	 gaussian 	 0.01
  # sc_accuracy_eev   1E-3 	 	 # sum of eigenvalues convergence
  # sc_accuracy_etot  1E-6 	 	 # total energy convergence
  # sc_accuracy_rho   1E-3 	 	 # electron density convergence
  # elsi_restart 	 read_and_write 	 1000
  
  compute_dielectric 20 200
  dielectric_broadening gaussian 0.1
  
  #===============================================================================
  
  ################################################################################
  #
  #  FHI-aims code project
  #  VB, Fritz-Haber Institut, 2009
  #
  #  Suggested "light" defaults for Si atom (to be pasted into control.in file)
  #  Be sure to double-check any results obtained with these settings for post-processing,
  #  e.g., with the "tight" defaults and larger basis sets.
  #
  ################################################################################
    species        Si
  #     global species definitions
      nucleus             14
      mass                28.0855
  #
      l_hartree           4
  #
      cut_pot             3.5          1.5  1.0
      basis_dep_cutoff    1e-4
  #
      radial_base         42 5.0
      radial_multiplier   1
      angular_grids       specified
        division   0.5866   50
        division   0.9616  110
        division   1.2249  194
        division   1.3795  302
  #      division   1.4810  434
  #      division   1.5529  590
  #      division   1.6284  770
  #      division   1.7077  974
  #      division   2.4068 1202
  #      outer_grid   974
        outer_grid 302
  ################################################################################
  #
  #  Definition of "minimal" basis
  #
  ################################################################################
  #     valence basis states
      valence      3  s   2.
      valence      3  p   2.
  #     ion occupancy
      ion_occ      3  s   1.
      ion_occ      3  p   1.
  ################################################################################
  #
  #  Suggested additional basis functions. For production calculations,
  #  uncomment them one after another (the most important basis functions are
  #  listed first).
  #
  #  Constructed for dimers: 1.75 A, 2.0 A, 2.25 A, 2.75 A, 3.75 A
  #
  ################################################################################
  #  "First tier" - improvements: -571.96 meV to -37.03 meV
       hydro 3 d 4.2
       hydro 2 p 1.4
       hydro 4 f 6.2
       ionic 3 s auto
  #  "Second tier" - improvements: -16.76 meV to -3.03 meV
  #     hydro 3 d 9
  #     hydro 5 g 9.4
  #     hydro 4 p 4
  #     hydro 1 s 0.65
  #  "Third tier" - improvements: -3.89 meV to -0.60 meV
  #     ionic 3 d auto
  #     hydro 3 s 2.6
  #     hydro 4 f 8.4
  #     hydro 3 d 3.4
  #     hydro 3 p 7.8
  #  "Fourth tier" - improvements: -0.33 meV to -0.11 meV
  #     hydro 2 p 1.6
  #     hydro 5 g 10.8
  #     hydro 5 f 11.2
  #     hydro 3 d 1
  #     hydro 4 s 4.5
  #  Further basis functions that fell out of the optimization - noise
  #  level... < -0.08 meV
  #     hydro 4 d 6.6
  #     hydro 5 g 16.4
  #     hydro 4 d 9
  
  -----------------------------------------------------------------------
  Completed first pass over input file control.in .
  -----------------------------------------------------------------------
  
  
  -----------------------------------------------------------------------
  Parsing geometry.in (first pass over file, find array dimensions only).
  The contents of geometry.in will be repeated verbatim below
  unless switched off by setting 'verbatim_writeout .false.' .
  in the first line of geometry.in .
  -----------------------------------------------------------------------
  
  #=======================================================
  # FHI-aims file: ./geometry.in
  # Created using the Atomic Simulation Environment (ASE)
  # Tue Nov 10 17:29:52 2020
  #=======================================================
  lattice_vector 0.0000000000000000 2.7343639799999999 2.7343639799999999
  lattice_vector 2.7343639799999999 0.0000000000000000 2.7343639799999999
  lattice_vector 2.7343639799999999 2.7343639799999999 0.0000000000000000
  atom_frac 0.0000000000000000 0.0000000000000000 -0.0000000000000000 Si
  atom_frac 0.2500000000000000 0.2500000000000000 0.2500000000000000 Si
  
  -----------------------------------------------------------------------
  Completed first pass over input file geometry.in .
  -----------------------------------------------------------------------
  

  Basic array size parameters:
  | Number of species                 :        1
  | Number of atoms                   :        2
  | Number of lattice vectors         :        3
  | Max. basis fn. angular momentum   :        3
  | Max. atomic/ionic basis occupied n:        3
  | Max. number of basis fn. types    :        3
  | Max. radial fns per species/type  :        5
  | Max. logarithmic grid size        :     1346
  | Max. radial integration grid size :       42
  | Max. angular integration grid size:      302
  | Max. angular grid division number :        8
  | Radial grid for Hartree potential :     1346
  | Number of spin channels           :        1

------------------------------------------------------------
          Reading file control.in.
------------------------------------------------------------
  XC: Using PBE gradient-corrected functionals.
  Spin treatment: No spin polarisation.
  Found k-point grid:        12        12        12
  Scalar relativistic treatment of kinetic energy: on-site free-atom approximation to ZORA.
  Requested output level: MD_light
  S.C.F. convergence parameters will be adjusted in iteration number     3 of each new s.c.f. cycle.
  Compute Momentum Matrix.

  Reading configuration options for species Si                  .
  | Found nuclear charge :  14.0000
  | Found atomic mass :    28.085500000000000      amu
  | Found l_max for Hartree potential  :   4
  | Found cutoff potl. onset [A], width [A], scale factor :    3.50000    1.50000    1.00000
  | Threshold for basis-dependent cutoff potential is   0.100000E-03
  | Found data for basic radial integration grid :    42 points, outermost radius =    5.000 A
  | Found multiplier for basic radial grid :   1
  | Found angular grid specification: user-specified.
  | Specified grid contains     5 separate shells.
  | Check grid settings after all constraints further below.
  | Found free-atom valence shell :  3 s   2.000
  | Found free-atom valence shell :  3 p   2.000
  | Found free-ion valence shell :  3 s   1.000
  | Found free-ion valence shell :  3 p   1.000
  | Found hydrogenic basis function :  3 d   4.200
  | Found hydrogenic basis function :  2 p   1.400
  | Found hydrogenic basis function :  4 f   6.200
  | Found ionic basis function :  3 s , default cutoff radius.
  Species Si                  : Missing cutoff potential type.
  Defaulting to exp(1/x)/(1-x)^2 type cutoff potential.
  Species Si: No 'logarithmic' tag. Using default grid for free atom:
  | Default logarithmic grid data [bohr] : 0.1000E-03 0.1000E+03 0.1012E+01
  | Will include ionic basis functions of  2.0-fold positive Si                   ion.
  Species Si: On-site basis accuracy parameter (for Gram-Schmidt orthonormalisation) not specified.
  Using default value basis_acc =  0.1000000E-03.
  Species Si                  : Using default innermost maximum threshold i_radial=  2 for radial functions.
  Species Si                  : Default cutoff onset for free atom density etc. : 0.35000000E+01 AA.
  Species Si                  : Basic radial grid will be enhanced according to radial_multiplier =   1, to contain    42 grid points.

  Finished reading input file 'control.in'.

------------------------------------------------------------


------------------------------------------------------------
          Reading geometry description geometry.in.
------------------------------------------------------------
  | The smallest distance between any two atoms is         2.36802867 AA.
  | The first atom of this pair is atom number                      1 .
  | The second atom of this pair is atom number                     2 .
  | Wigner-Seitz cell of the first atom image           0     1     0 .
  | (The Wigner-Seitz cell of the second atom is 0 0 0  by definition.)

  Symmetry information by spglib:
  | Precision set to  0.1E-04
  | Number of Operations  : 48
  | Space group           : 227
  | International         : Fd-3m
  | Schoenflies           : Oh^7
  Input structure read successfully.
  The structure contains        2 atoms,  and a total of         28.000 electrons.

  Input geometry:
  | Unit cell:
  |        0.00000000        2.73436398        2.73436398
  |        2.73436398        0.00000000        2.73436398
  |        2.73436398        2.73436398        0.00000000
  | Atomic structure:
  |       Atom                x [A]            y [A]            z [A]
  |    1: Species Si            0.00000000        0.00000000        0.00000000
  |    2: Species Si            1.36718199        1.36718199        1.36718199

  Lattice parameters for 3D lattice (in Angstroms) :     3.866975    3.866975    3.866975
  Angle(s) between unit vectors (in degrees)       :    60.000000   60.000000   60.000000


  Quantities derived from the lattice vectors:
  | Reciprocal lattice vector 1: -1.148930  1.148930  1.148930
  | Reciprocal lattice vector 2:  1.148930 -1.148930  1.148930
  | Reciprocal lattice vector 3:  1.148930  1.148930 -1.148930
  | Unit cell volume                               :   0.408883E+02  A^3


  Finished reading input file 'control.in'.


------------------------------------------------------------
          Reading geometry description geometry.in.
------------------------------------------------------------

  Consistency checks for the contents of control.in are next.

  MPI_IN_PLACE appears to work with this MPI implementation.
  | Keeping use_mpi_in_place .true. (see manual).
  Target number of points in a grid batch is not set. Defaulting to  100
  Method for grid partitioning is not set. Defaulting to parallel hash+maxmin partitioning.
  Batch size limit is not set. Defaulting to    200
  By default, will store active basis functions for each batch.
  If in need of memory, prune_basis_once .false. can be used to disable this option.
  communication_type for Hartree potential was not specified.
  Defaulting to calc_hartree .
  Defaulting to Pulay charge density mixer.
  Pulay mixer: Number of relevant iterations not set.
  Defaulting to    8 iterations.
  Pulay mixer: Number of initial linear mixing iterations not set.
  Defaulting to    0 iterations.
  Work space size for distributed Hartree potential not set.
  Defaulting to   0.200000E+03 MB.
  Mixing parameter for charge density mixing has not been set.
  Using default: charge_mix_param =     0.0500.
  The mixing parameter will be adjusted in iteration number     3 of each s.c.f. cycle (i.e., each geometry step).
  Algorithm-dependent basis array size parameters:
  | n_max_pulay                         :        8
  Maximum number of self-consistency iterations not provided.
  Presetting  1000 iterations.
  Presetting      1001 iterations before the initial mixing cycle
  is restarted anyway using the sc_init_iter criterion / keyword.
  Presetting a factor      1.000 between actual scf density residual
  and density convergence criterion sc_accuracy_rho below which sc_init_iter
  takes no effect.
 * No s.c.f. convergence criteria (sc_accuracy_*) were provided in control.in.
 * The run will proceed with a reasonable default guess, but please check whether.
 * the s.c.f. cycles seem to take too much or too little time.
  Calculation of forces was not defined in control.in. No forces will be calculated.
  Geometry relaxation not requested: no relaxation will be performed.
 * Notice: The s.c.f. convergence criterion sc_accuracy_rho was not provided.
 * We used to stop in this case, and ask the user to provide reasonable
 * scf convergence criteria. However, this led some users to employ criteria
 * that led to extremely long run times, e.g., for simple relaxation.
 * We now preset a default value for sc_accuracy_rho if it is not set.
 * You may still wish to check if this setting is too tight or too loose for your needs.
 * Based on n_atoms, FHI-aims chose sc_accuracy_rho =  0.100000E-05 .
  No accuracy limit for integral partition fn. given. Defaulting to  0.1000E-14.
  No threshold value for u(r) in integrations given. Defaulting to  0.1000E-05.
  No occupation type (smearing scheme) given. Defaulting to Gaussian broadening, width =  0.1000E-01 eV.
  The width will be adjusted in iteration number     3 of each s.c.f. cycle (i.e., each geometry step).
  S.C.F. convergence parameters will be adjusted in iteration number     3 of the first full s.c.f. cycle only.
  No accuracy for occupation numbers given. Defaulting to  0.1000E-12.
  No threshold value for occupation numbers given. Defaulting to  0.0000E+00.
  No accuracy for fermi level given. Defaulting to  0.1000E-19.
  Maximum # of iterations to find E_F not set. Defaulting to  200.
  Preferred method for the eigenvalue solver ('KS_method') not specified in 'control.in'.
  Defaulting to serial version, LAPACK (via ELSI), since more k-points than CPUs available.
  Will not use alltoall communication since running on < 1024 CPUs.
  Threshold for basis singularities not set.
  Default threshold for basis singularities:  0.1000E-04
  partition_type (choice of integration weights) for integrals was not specified.
  | Using a version of the partition function of Stratmann and coworkers ('stratmann_sparse').
  | At each grid point, the set of atoms used to build the partition table is smoothly restricted to
  | only those atoms whose free-atom density would be non-zero at that grid point.
  Partitioning for Hartree potential was not defined. Using partition_type for integrals.
  | Adjusted default value of keyword multip_moments_threshold to:       0.10000000E-11
  | This value may affect high angular momentum components of the Hartree potential in periodic systems.
  Angular momentum expansion for Kerker preconditioner not set explicitly.
  | Using default value of   0
  No explicit requirement for turning off preconditioner.
  | By default, it will be turned off when the charge convergence reaches
  | sc_accuracy_rho  =   0.100000E-05
  No special mixing parameter while Kerker preconditioner is on.
  Using default: charge_mix_param =     0.0500.
  No q(lm)/r^(l+1) cutoff set for long-range Hartree potential.
  | Using default value of  0.100000E-09 .
  | Verify using the multipole_threshold keyword.
  Defaulting to new monopole extrapolation.
  Density update method: automatic selection selected.
  Using density matrix based charge density update.
  Using density matrix based charge density update.
  Using packed matrix style: index .
  Defaulting to use time-reversal symmetry for k-point grid.
  Charge integration errors on the 3D integration grid will be compensated
  by explicit normalization and distribution of residual charges.
  Use the "compensate_multipole_errors" flag to change this behaviour.
  Set 'collect_eigenvectors' to be '.true.' for all serial calculations. This is mandatory.
  Set 'collect_eigenvectors' to be '.true.' for KS_method lapack_fast and serial.

  Consistency checks for the contents of geometry.in are next.


  Range separation radius for Ewald summation (hartree_convergence_parameter):      3.91873589 bohr.
  Number of empty states per atom not set in control.in - providing a guess from actual geometry.
  | Total number of empty states used during s.c.f. cycle:        6
  If you use a very high smearing, use empty_states (per atom!) in control.in to increase this value.
  * Since a dielectric function calculation was requested, the number of empty states requested was INCREASED.

  Structure-dependent array size parameters: 
  | Maximum number of distinct radial functions  :        9
  | Maximum number of basis functions            :       50
  | Number of Kohn-Sham states (occupied + empty):       70
------------------------------------------------------------

------------------------------------------------------------
          Preparing all fixed parts of the calculation.
------------------------------------------------------------
  Determining machine precision:
     2.2250738585072014E-308
  Setting up grids for atomic and cluster calculations.

  Creating wave function, potential, and density for free atoms.

  Species: Si

  List of occupied orbitals and eigenvalues:
    n    l              occ      energy [Ha]    energy [eV]
    1    0           2.0000       -65.767597     -1789.6274
    2    0           2.0000        -5.115610      -139.2028
    3    0           2.0000        -0.388877       -10.5819
    2    1           6.0000        -3.500197       -95.2452
    3    1           2.0000        -0.140803        -3.8315


  Adding cutoff potential to free-atom effective potential.
  Creating fixed part of basis set: Ionic, confined, hydrogenic.

  Si                   ion:

  List of free ionic orbitals and eigenvalues:
    n    l      energy [Ha]    energy [eV]
    1    0       -66.641157     -1813.3982
    2    0        -5.964274      -162.2962
    3    0        -1.073878       -29.2217
    2    1        -4.350005      -118.3697
    3    1        -0.776571       -21.1316


  List of ionic basis orbitals and eigenvalues:
    n    l      energy [Ha]    energy [eV]    outer radius [A]
    3    0        -1.073857       -29.2211       4.214062


  Si                   hydrogenic:

  List of hydrogenic basis orbitals: 
    n    l      effective z      eigenvalue [eV]  inner max. [A]     outer max. [A]     outer radius [A]   
    3    2         4.200000       -26.6624           1.139231           1.139231           4.534782
    2    1         1.400000        -6.4613           1.472672           1.472672           4.590560
    4    3         6.200000       -32.6778           1.368518           1.368518           4.534782

  Creating atomic-like basis functions for current effective potential.

  Species Si                  :

  List of atomic basis orbitals and eigenvalues:
    n    l      energy [Ha]    energy [eV]    outer radius [A]
    1    0       -65.767597     -1789.6274       0.789468
    2    0        -5.115610      -139.2028       2.815114
    3    0        -0.388877       -10.5819       4.534782
    2    1        -3.500197       -95.2452       3.259919
    3    1        -0.140803        -3.8315       4.590560

  Assembling full basis from fixed parts.
  | Species Si :   atomic orbital   1 s accepted.
  | Species Si :   atomic orbital   2 s accepted.
  | Species Si :    ionic orbital   3 s accepted.
  | Species Si :   atomic orbital   3 s accepted.
  | Species Si :   atomic orbital   2 p accepted.
  | Species Si :   atomic orbital   3 p accepted.
  | Species Si :    hydro orbital   2 p accepted.
  | Species Si :    hydro orbital   3 d accepted.
  | Species Si :    hydro orbital   4 f accepted.
  Reducing total number of  Kohn-Sham states to       50.

  Basis size parameters after reduction:
  | Total number of radial functions:        9
  | Total number of basis functions :       50

  Per-task memory consumption for arrays in subroutine allocate_ext:
  |           3.102808MB.
  Testing on-site integration grid accuracy.
  |  Species  Function  <phi|h_atom|phi> (log., in eV)  <phi|h_atom|phi> (rad., in eV)
           1        1              -1789.6273740966              -1789.6266345813
           1        2               -139.2028173376               -139.2028132357
           1        3                -10.2237226190                -10.2235219160
           1        4                  5.6355365073                  5.5558633521 ***
           1        5                -95.2452114632                -95.2452114537
           1        6                 -3.8413965043                 -3.8571292824
           1        7                  6.4035522332                  6.2277973139 ***
           1        8                  6.3860095444                  6.3839142324
           1        9                 19.3722793793                 19.3677446767
 * Note: Onsite integrals marked "***" above are less accurate than
 * onsite_accuracy_threshold =    0.03000 eV. Usually, this is harmless.
 * When in doubt, tighten the "radial" and/or "radial_multiplier" flags to check.

  Preparing densities etc. for the partition functions (integrals / Hartree potential).

  Preparations completed.
  max(cpu_time)          :      0.202 s.
  Wall clock time (cpu1) :      0.202 s.
------------------------------------------------------------

------------------------------------------------------------
          Begin self-consistency loop: Initialization.

          Date     :  20210131, Time     :  130337.591
------------------------------------------------------------

  Initializing index lists of integration centers etc. from given atomic structure:
  Mapping all atomic coordinates to central unit cell.

  Initializing the k-points
  Using symmetry for reducing the k-points
  | k-points reduced from:     1728 to      868
  | Number of k-points                             :       868
  The eigenvectors in the calculations are COMPLEX.
  | K-points in task   0:       217
  | K-points in task   1:       217
  | K-points in task   2:       217
  | K-points in task   3:       217
  | Number of basis functions in the Hamiltonian integrals :      2161
  | Number of basis functions in a single unit cell        :        50
  | Number of centers in hartree potential         :       732
  | Number of centers in hartree multipole         :       318
  | Number of centers in electron density summation:       198
  | Number of centers in basis integrals           :       198
  | Number of centers in integrals                 :       101
  | Number of centers in hamiltonian               :       198
  | Consuming       1519 KiB for k_phase.
  | Number of super-cells (origin) [n_cells]                     :        2197
  | Number of super-cells (after PM_index) [n_cells]             :         112
  | Number of super-cells in hamiltonian [n_cells_in_hamiltonian]:         112
  | Size of matrix packed + index [n_hamiltonian_matrix_size] :       86523
  | Estimated reciprocal-space cutoff momentum G_max:         2.38133540 bohr^-1 .
  | Reciprocal lattice points for long-range Hartree potential:      58
  Partitioning the integration grid into batches with parallel hashing+maxmin method.
  | Number of batches:      140
  | Maximal batch size:     107
  | Minimal batch size:      50
  | Average batch size:      80.057
  | Standard deviation of batch sizes:      14.801

  Integration load balanced across     4 MPI tasks.
  Work distribution over tasks is as follows:
  Task     0 has       2849 integration points.
  Task     1 has       2789 integration points.
  Task     2 has       2766 integration points.
  Task     3 has       2804 integration points.
  Initializing partition tables, free-atom densities, potentials, etc. across the integration grid (initialize_grid_storage).
  | initialize_grid_storage: Actual outermost partition radius vs. multipole_radius_free
  | (-- VB: in principle, multipole_radius_free should be larger, hence this output)
  | Species        1: Confinement radius =              4.999999999999999 AA, multipole_radius_free =              5.000694715736543 AA.
  | Species        1: outer_partition_radius set to              5.000694715736543 AA .
  | The sparse table of interatomic distances needs        212.76 kbyte instead of       313.63 kbyte of memory.
  | Net number of integration points:    11208
  | of which are non-zero points    :     9820
  | Numerical average free-atom electrostatic potential    :    -12.85673500 eV
  Renormalizing the initial density to the exact electron count on the 3D integration grid.
  | Initial density: Formal number of electrons (from input files) :      28.0000000000
  | Integrated number of electrons on 3D grid     :      28.0047528210
  | Charge integration error                      :       0.0047528210
  | Normalization factor for density and gradient :       0.9998302852
  Renormalizing the free-atom superposition density to the exact electron count on the 3D integration grid.
  | Formal number of electrons (from input files) :      28.0000000000
  | Integrated number of electrons on 3D grid     :      28.0047528210
  | Charge integration error                      :       0.0047528210
  | Normalization factor for density and gradient :       0.9998302852
  Obtaining max. number of non-zero basis functions in each batch (get_n_compute_maxes).
  | Maximal number of non-zero basis functions:      686 in task     0
  | Maximal number of non-zero basis functions:      691 in task     1
  | Maximal number of non-zero basis functions:      691 in task     2
  | Maximal number of non-zero basis functions:      674 in task     3
  Allocating        8.278 MB for KS_eigenvector_complex
  Integrating Hamiltonian matrix: batch-based integration.
  Time summed over all CPUs for integration: real work        1.101 s, elapsed        1.108 s
  Integrating overlap matrix.
  Time summed over all CPUs for integration: real work        0.911 s, elapsed        0.923 s
  Decreasing sparse matrix size:
  | Tolerance:  0.1000E-12
  Hamiltonian matrix
  | Array has    76970 nonzero elements out of    86523 elements
  | Sparsity factor is 0.110
  Overlap matrix
  | Array has    72538 nonzero elements out of    86523 elements
  | Sparsity factor is 0.162
  New size of hamiltonian matrix:       77471

  Updating Kohn-Sham eigenvalues and eigenvectors using ELSI and the (modified) LAPACK eigensolver.

  Obtaining occupation numbers and chemical potential using ELSI.
  | Chemical potential (Fermi level):    -5.26275025 eV
  Writing Kohn-Sham eigenvalues.
  K-point:       1 at    0.000000    0.000000    0.000000 (in units of recip. lattice)

  State    Occupation    Eigenvalue [Ha]    Eigenvalue [eV]
      1       2.00000         -65.787897        -1790.17976
      2       2.00000         -65.787897        -1790.17976
      3       2.00000          -5.140312         -139.87499
      4       2.00000          -5.140054         -139.86800
      5       2.00000          -3.524910          -95.91768
      6       2.00000          -3.524910          -95.91768
      7       2.00000          -3.524910          -95.91768
      8       2.00000          -3.524336          -95.90206
      9       2.00000          -3.524336          -95.90206
     10       2.00000          -3.524336          -95.90206
     11       2.00000          -0.655472          -17.83629
     12       2.00000          -0.224530           -6.10976
     13       2.00000          -0.224530           -6.10976
     14       2.00000          -0.224530           -6.10976
     15       0.00000          -0.122981           -3.34650
     16       0.00000          -0.122981           -3.34650
     17       0.00000          -0.122981           -3.34650
     18       0.00000          -0.109760           -2.98671
     19       0.00000           0.073311            1.99490
     20       0.00000           0.073311            1.99490
     21       0.00000           0.096488            2.62557
     22       0.00000           0.224806            6.11727
     23       0.00000           0.224806            6.11727
     24       0.00000           0.224806            6.11727
     25       0.00000           0.603099           16.41117
     26       0.00000           0.678507           18.46310
     27       0.00000           0.678507           18.46310
     28       0.00000           0.678507           18.46310
     29       0.00000           0.684283           18.62028
     30       0.00000           0.684283           18.62028
     31       0.00000           0.745248           20.27922
     32       0.00000           0.745248           20.27922
     33       0.00000           0.745248           20.27922
     34       0.00000           0.882829           24.02299
     35       0.00000           0.882829           24.02299
     36       0.00000           0.882829           24.02299
     37       0.00000           1.282484           34.89817
     38       0.00000           1.282484           34.89817
     39       0.00000           1.282484           34.89817
     40       0.00000           1.392216           37.88412
     41       0.00000           1.534380           41.75260
     42       0.00000           1.534380           41.75260
     43       0.00000           1.534380           41.75260
     44       0.00000           1.718192           46.75438
     45       0.00000           1.718192           46.75438
     46       0.00000           1.718192           46.75438
     47       0.00000           1.730549           47.09063
     48       0.00000           1.730549           47.09063
     49       0.00000           1.730549           47.09063
     50       0.00000           3.331837           90.66391

  What follows are estimated values for band gap, HOMO, LUMO, etc.
  | They are estimated on a discrete k-point grid and not necessarily exact.
  | For converged numbers, create a DOS and/or band structure plot on a denser k-grid.

  Highest occupied state (VBM) at     -6.10976192 eV (relative to internal zero)
  | Occupation number:      2.00000000
  | K-point:       1 at    0.000000    0.000000    0.000000 (in units of recip. lattice)

  Lowest unoccupied state (CBM) at    -5.22053843 eV (relative to internal zero)
  | Occupation number:      0.00000000
  | K-point:     690 at    0.583333    0.000000    0.583333 (in units of recip. lattice)

  ESTIMATED overall HOMO-LUMO gap:      0.88922349 eV between HOMO at k-point 1 and LUMO at k-point 690
  | This appears to be an indirect band gap.
  | Smallest direct gap :      2.73039573 eV for k_point 615 at    0.500000    0.000000    0.000000 (in units of recip. lattice)
  The gap value is above 0.2 eV. Unless you are using a very sparse k-point grid,
  this system is most likely an insulator or a semiconductor.
  Calculating total energy contributions from superposition of free atom densities.

  Total energy components:
  | Sum of eigenvalues            :        -329.25249713 Ha       -8959.41629689 eV
  | XC energy correction          :         -41.71276369 Ha       -1135.06205122 eV
  | XC potential correction       :          53.86954608 Ha        1465.86493127 eV
  | Free-atom electrostatic energy:        -263.64579720 Ha       -7174.16715932 eV
  | Hartree energy correction     :          -0.00000000 Ha          -0.00000000 eV
  | Entropy correction            :          -0.00000000 Ha          -0.00000000 eV
  | ---------------------------
  | Total energy                  :        -580.74151193 Ha      -15802.78057617 eV
  | Total energy, T -> 0          :        -580.74151193 Ha      -15802.78057617 eV  <-- do not rely on this value for anything but (periodic) metals
  | Electronic free energy        :        -580.74151193 Ha      -15802.78057617 eV

  Derived energy quantities:
  | Kinetic energy                :         582.28107026 Ha       15844.67408986 eV
  | Electrostatic energy          :       -1121.30981850 Ha      -30512.39261481 eV
  | Energy correction for multipole
  | error in Hartree potential    :           0.00000000 Ha           0.00000000 eV
  | Sum of eigenvalues per atom                           :       -4479.70814845 eV
  | Total energy (T->0) per atom                          :       -7901.39028808 eV  <-- do not rely on this value for anything but (periodic) metals
  | Electronic free energy per atom                       :       -7901.39028808 eV
  Initialize hartree_potential_storage
  Max. number of atoms included in rho_multipole:            2

  End scf initialization - timings             :  max(cpu_time)    wall_clock(cpu1)
  | Time for scf. initialization               :        1.347 s           1.355 s
  | Boundary condition initialization          :        0.164 s           0.163 s
  | Integration                                :        0.517 s           0.517 s
  | Solution of K.-S. eqns.                    :        0.489 s           0.491 s
  | Grid partitioning                          :        0.046 s           0.046 s
  | Preloading free-atom quantities on grid    :        0.106 s           0.108 s
  | Free-atom superposition energy             :        0.017 s           0.017 s
  | Total energy evaluation                    :        0.003 s           0.006 s

  Partial memory accounting:
  | Current value for overall tracked memory usage:
  |   Minimum:        9.756 MB (on task 0)
  |   Maximum:        9.756 MB (on task 0)
  |   Average:        9.756 MB
  | Peak value for overall tracked memory usage:
  |   Minimum:       15.060 MB (on task 3 after allocating wave)
  |   Maximum:       15.279 MB (on task 1 after allocating wave)
  |   Average:       15.208 MB
  | Largest tracked array allocation so far:
  |   Minimum:        8.278 MB (KS_eigenvector_complex on task 0)
  |   Maximum:        8.278 MB (KS_eigenvector_complex on task 0)
  |   Average:        8.278 MB
  Note:  These values currently only include a subset of arrays which are explicitly tracked.
  The "true" memory usage will be greater.
------------------------------------------------------------
Convergence:    q app. |  density  | eigen (eV) | Etot (eV) |             . |       CPU time |     Clock time
  SCF    1 : -0.00E+00 |  0.11E+00 |   0.12E+01 |  0.13E-01 |             . |        1.848 s |        1.850 s
  SCF    2 : -0.00E+00 |  0.10E+00 |   0.20E+02 |  0.10E+00 |             . |        1.682 s |        1.684 s
  SCF    3 : -0.00E+00 |  0.16E-01 |  -0.46E+01 |  0.52E-02 |             . |        1.630 s |        1.633 s
  SCF    4 : -0.00E+00 |  0.83E-02 |  -0.20E+01 |  0.22E-02 |             . |        1.625 s |        1.626 s
  SCF    5 : -0.00E+00 |  0.35E-02 |  -0.65E+00 |  0.14E-02 |             . |        1.647 s |        1.648 s
  SCF    6 : -0.00E+00 |  0.37E-03 |  -0.14E+00 |  0.68E-04 |             . |        1.671 s |        1.674 s
  SCF    7 : -0.00E+00 |  0.50E-03 |   0.33E-01 | -0.12E-04 |             . |        1.686 s |        1.690 s
  SCF    8 : -0.00E+00 |  0.27E-03 |  -0.13E-01 |  0.26E-05 |             . |        1.672 s |        1.672 s
  SCF    9 : -0.00E+00 |  0.23E-03 |  -0.22E-02 | -0.61E-07 |             . |        1.641 s |        1.643 s
  SCF   10 : -0.00E+00 |  0.22E-03 |  -0.78E-01 |  0.25E-04 |             . |        1.616 s |        1.619 s
  SCF   11 : -0.00E+00 |  0.20E-04 |  -0.12E-01 |  0.19E-05 |             . |        1.632 s |        1.633 s
  SCF   12 : -0.00E+00 |  0.42E-06 |  -0.32E-03 |  0.84E-07 |             . |        1.832 s |        1.833 s

  Total energy components:
  | Sum of eigenvalues            :        -328.73390261 Ha       -8945.30462216 eV
  | XC energy correction          :         -41.76294645 Ha       -1136.42759361 eV
  | XC potential correction       :          53.93277540 Ha        1467.58548843 eV
  | Free-atom electrostatic energy:        -263.64579720 Ha       -7174.16715932 eV
  | Hartree energy correction     :          -0.52712790 Ha         -14.34387992 eV
  | Entropy correction            :          -0.00000000 Ha          -0.00000000 eV
  | ---------------------------
  | Total energy                  :        -580.73699876 Ha      -15802.65776657 eV
  | Total energy, T -> 0          :        -580.73699876 Ha      -15802.65776657 eV  <-- do not rely on this value for anything but (periodic) metals
  | Electronic free energy        :        -580.73699876 Ha      -15802.65776657 eV

  Derived energy quantities:
  | Kinetic energy                :         582.24519738 Ha       15843.69793917 eV
  | Electrostatic energy          :       -1121.21924969 Ha      -30509.92811213 eV
  | Energy correction for multipole
  | error in Hartree potential    :           0.01414084 Ha           0.38479178 eV
  | Sum of eigenvalues per atom                           :       -4472.65231108 eV
  | Total energy (T->0) per atom                          :       -7901.32888329 eV  <-- do not rely on this value for anything but (periodic) metals
  | Electronic free energy per atom                       :       -7901.32888329 eV
  What follows are estimated values for band gap, HOMO, LUMO, etc.
  | They are estimated on a discrete k-point grid and not necessarily exact.
  | For converged numbers, create a DOS and/or band structure plot on a denser k-grid.

  Highest occupied state (VBM) at     -5.62644192 eV (relative to internal zero)
  | Occupation number:      2.00000000
  | K-point:       1 at    0.000000    0.000000    0.000000 (in units of recip. lattice)

  Lowest unoccupied state (CBM) at    -4.98989903 eV (relative to internal zero)
  | Occupation number:      0.00000000
  | K-point:      48 at    0.000000    0.416667    0.416667 (in units of recip. lattice)

  ESTIMATED overall HOMO-LUMO gap:      0.63654289 eV between HOMO at k-point 1 and LUMO at k-point 48
  | This appears to be an indirect band gap.
  | Smallest direct gap :      2.55678891 eV for k_point 1 at    0.000000    0.000000    0.000000 (in units of recip. lattice)
  The gap value is above 0.2 eV. Unless you are using a very sparse k-point grid,
  this system is most likely an insulator or a semiconductor.

  Self-consistency cycle converged.


  Energy and forces in a compact form:
  | Total energy uncorrected      :         -0.158026577665712E+05 eV
  | Total energy corrected        :         -0.158026577665712E+05 eV  <-- do not rely on this value for anything but (periodic) metals
  | Electronic free energy        :         -0.158026577665712E+05 eV

  ------------------------------------------------------------
               Starting Dielectric Calculations
  ------------------------------------------------------------

  Recalculating HOMO and LUMO levels to determine eigenstates needed for dielectric calculations...

  What follows are estimated values for band gap, HOMO, LUMO, etc.
  | They are estimated on a discrete k-point grid and not necessarily exact.
  | For converged numbers, create a DOS and/or band structure plot on a denser k-grid.

  Highest occupied state (VBM) at     -5.62644192 eV (relative to internal zero)
  | Occupation number:      2.00000000
  | K-point:       1 at    0.000000    0.000000    0.000000 (in units of recip. lattice)

  Lowest unoccupied state (CBM) at    -4.98989903 eV (relative to internal zero)
  | Occupation number:      0.00000000
  | K-point:      48 at    0.000000    0.416667    0.416667 (in units of recip. lattice)

  ESTIMATED overall HOMO-LUMO gap:      0.63654289 eV between HOMO at k-point 1 and LUMO at k-point 48
  | This appears to be an indirect band gap.
  | Smallest direct gap :      2.55678891 eV for k_point 1 at    0.000000    0.000000    0.000000 (in units of recip. lattice)
  The gap value is above 0.2 eV. Unless you are using a very sparse k-point grid,
  this system is most likely an insulator or a semiconductor.

  Index of first state to include in dielectric calculations :        11
  Index of last state to include in dielectric calculations  :        36

  Allocating memory for main dielectric-related matrices...
  Allocating        0.000 MB for omega_plasma_sq
  Allocating        0.018 MB for interband_polarizability
  Allocating        0.018 MB for intraband_polarizability
  Allocating        0.018 MB for dielectric
  Allocating        0.009 MB for absorption_coeff
  Allocating        0.591 MB for mommat_full_x_up
  Allocating        0.591 MB for mommat_full_x_low
  Allocating        0.591 MB for mommat_full_y_up
  Allocating        0.591 MB for mommat_full_y_low
  Allocating        0.591 MB for mommat_full_z_up
  Allocating        0.591 MB for mommat_full_z_low
  Allocating        0.016 MB for moment_TZ

  Calculating p_x matrix elements...
  Integrating real-space momentum matrix: batch-based integration.
  Time summed over all CPUs for integration: real work        2.908 s, elapsed        2.937 s

  Calculating p_y matrix elements...
  Integrating real-space momentum matrix: batch-based integration.
  Time summed over all CPUs for integration: real work        2.593 s, elapsed        2.626 s

  Calculating p_z matrix elements...
  Integrating real-space momentum matrix: batch-based integration.
  Time summed over all CPUs for integration: real work        2.785 s, elapsed        2.803 s

  Calculating dielectric tensor elements...
  Performing Kramers-Kronig transform for interband contribution to dielectric component #     1
  Performing Kramers-Kronig transform for interband contribution to dielectric component #     2
  Performing Kramers-Kronig transform for interband contribution to dielectric component #     3
  Performing Kramers-Kronig transform for interband contribution to dielectric component #     4
  Performing Kramers-Kronig transform for interband contribution to dielectric component #     5
  Performing Kramers-Kronig transform for interband contribution to dielectric component #     6

  Summary for dielectric component #  x_x
  | Broadening parameters    :       1.00000E-01 eV (Gaussian)
  | Plasma frequency         :       1.15614E-02 eV
  | Minimum omega value      :       1.00000E-02 eV
  | Epsilon at minimum omega :       1.30262E+01


  Summary for dielectric component #  y_y
  | Broadening parameters    :       1.00000E-01 eV (Gaussian)
  | Plasma frequency         :       1.15614E-02 eV
  | Minimum omega value      :       1.00000E-02 eV
  | Epsilon at minimum omega :       1.30262E+01


  Summary for dielectric component #  z_z
  | Broadening parameters    :       1.00000E-01 eV (Gaussian)
  | Plasma frequency         :       1.16505E-02 eV
  | Minimum omega value      :       1.00000E-02 eV
  | Epsilon at minimum omega :       1.34597E+01


  Summary for dielectric component #  x_y
  | Broadening parameters    :       1.00000E-01 eV (Gaussian)
  | Plasma frequency         :       1.16029E-09 eV
  | Minimum omega value      :       1.00000E-02 eV
  | Epsilon at minimum omega :       5.90037E-10


  Summary for dielectric component #  x_z
  | Broadening parameters    :       1.00000E-01 eV (Gaussian)
  | Plasma frequency         :       4.14541E-10 eV
  | Minimum omega value      :       1.00000E-02 eV
  | Epsilon at minimum omega :       1.78130E-09


  Summary for dielectric component #  y_z
  | Broadening parameters    :       1.00000E-01 eV (Gaussian)
  | Plasma frequency         :       2.51708E-09 eV
  | Minimum omega value      :       1.00000E-02 eV
  | Epsilon at minimum omega :      -1.90663E-09

  Dielectric calculations                                 :  max(cpu_time)    wall_clock(cpu1)
  | Time for real-space momentum matrix integration       :          2.088               2.111
  | Time for calculating momentum matrix elements         :          0.471               0.470
  | Time for plasma frequency and interband contributions :          2.251               2.266
  | Time for syncing and postprocessing                   :          0.122               0.525
  | Total time for dielectric calculations                :          4.950               5.387

  Partial memory accounting:
  | Current value for overall tracked memory usage:
  |   Minimum:        9.757 MB (on task 0)
  |   Maximum:        9.757 MB (on task 0)
  |   Average:        9.757 MB
  | Peak value for overall tracked memory usage:
  |   Minimum:       49.134 MB (on task 0 after allocating index_b)
  |   Maximum:       49.134 MB (on task 0 after allocating index_b)
  |   Average:       49.134 MB
  | Largest tracked array allocation so far:
  |   Minimum:       35.629 MB (work_ovl_mom on task 0)
  |   Maximum:       35.629 MB (work_ovl_mom on task 0)
  |   Average:       35.629 MB
  Note:  These values currently only include a subset of arrays which are explicitly tracked.
  The "true" memory usage will be greater.
------------------------------------------------------------

------------------------------------------------------------------------------
  Final output of selected total energy values:

  The following output summarizes some interesting total energy values
  at the end of a run (AFTER all relaxation, molecular dynamics, etc.).

  | Total energy of the DFT / Hartree-Fock s.c.f. calculation      :         -15802.657766571 eV
  | Final zero-broadening corrected energy (caution - metals only) :         -15802.657766571 eV
  | For reference only, the value of 1 Hartree used in FHI-aims is :             27.211384500 eV
  | For reference only, the overall average (free atom contribution
  | + realspace contribution) of the electrostatic potential after
  | s.c.f. convergence is                                          :            -12.560849867 eV

  Before relying on these values, please be sure to understand exactly which
  total energy value is referred to by a given number. Different objects may
  all carry the same name 'total energy'. Definitions:

  Total energy of the DFT / Hartree-Fock s.c.f. calculation:
  | Note that this energy does not include ANY quantities calculated after the
  | s.c.f. cycle, in particular not ANY RPA, MP2, etc. many-body perturbation terms.

  Final zero-broadening corrected energy:
  | For metallic systems only, a broadening of the occupation numbers at the Fermi
  | level can be extrapolated back to zero broadening by an electron-gas inspired
  | formula. For all systems that are not real metals, this value can be
  | meaningless and should be avoided.

------------------------------------------------------------------------------
  Methods described in the following list of references were used in this FHI-aims run.
  If you publish the results, please make sure to cite these reference if they apply.
  FHI-aims is an academic code, and for our developers (often, Ph.D. students
  and postdocs), scientific credit in the community is essential.
  Thank you for helping us!

  For any use of FHI-aims, please cite:

    Volker Blum, Ralf Gehrke, Felix Hanke, Paula Havu, Ville Havu,
    Xinguo Ren, Karsten Reuter, and Matthias Scheffler
    'Ab initio molecular simulations with numeric atom-centered orbitals'
    Computer Physics Communications 180, 2175-2196 (2009)
    http://dx.doi.org/10.1016/j.cpc.2009.06.022


  The provided symmetry information was generated with SPGlib:

    Atsushi Togo, Yusuke Seto, Dimitar Pashov
    SPGlib 1.7.3 obtained from http://spglib.sourceforge.net
    Copyright (C) 2008 Atsushi Togo


  The ELSI infrastructure was used in your run to solve the Kohn-Sham electronic structure.
  Please check out http://elsi-interchange.org to learn more.
  If scalability is important for your project, please acknowledge ELSI by citing:

    V. W-z. Yu, F. Corsetti, A. Garcia, W. P. Huhn, M. Jacquelin, W. Jia,
    B. Lange, L. Lin, J. Lu, W. Mi, A. Seifitokaldani, A. Vazquez-Mayagoitia,
    C. Yang, H. Yang, and V. Blum
    'ELSI: A unified software interface for Kohn-Sham electronic structure solvers'
    Computer Physics Communications 222, 267-285 (2018).
    http://dx.doi.org/10.1016/j.cpc.2017.09.007


  For the real-space grid partitioning and parallelization used in this calculation, please cite:

    Ville Havu, Volker Blum, Paula Havu, and Matthias Scheffler,
    'Efficient O(N) integration for all-electron electronic structure calculation'
    'using numerically tabulated basis functions'
    Journal of Computational Physics 228, 8367-8379 (2009).
    http://dx.doi.org/10.1016/j.jcp.2009.08.008

  Of course, there are many other important community references, e.g., those cited in the
  above references. Our list is limited to references that describe implementations in the
  FHI-aims code. The reason is purely practical (length of this list) - please credit others as well.

------------------------------------------------------------
          Leaving FHI-aims.
          Date     :  20210131, Time     :  130404.699

          Computational steps:
          | Number of self-consistency cycles          :           12
          | Number of SCF (re)initializations          :            1

          Detailed time accounting                     :  max(cpu_time)    wall_clock(cpu1)
          | Total time                                 :       27.204 s          27.370 s
          | Preparation time                           :        0.202 s           0.202 s
          | Boundary condition initalization           :        0.164 s           0.163 s
          | Grid partitioning                          :        0.046 s           0.046 s
          | Preloading free-atom quantities on grid    :        0.106 s           0.108 s
          | Free-atom superposition energy             :        0.017 s           0.017 s
          | Total time for integrations                :        4.200 s           4.203 s
          | Total time for solution of K.-S. equations :        4.839 s           4.845 s
          | Total time for density update              :        8.318 s           8.323 s
          | Total time for mixing & preconditioning    :        1.238 s           1.239 s
          | Total time for Hartree multipole update    :        0.016 s           0.019 s
          | Total time for Hartree multipole sum       :        2.523 s           2.520 s
          | Total time for total energy evaluation     :        0.022 s           0.042 s
          | Total time for scaled ZORA corrections     :        0.000 s           0.000 s
          | Total time for dielectric calculations     :        4.950 s           5.387 s

          Partial memory accounting:
          | Residual value for overall tracked memory usage across tasks:     0.000000 MB (should be 0.000000 MB)
          | Peak values for overall tracked memory usage:
          |   Minimum:       49.134 MB (on task 0 after allocating index_b)
          |   Maximum:       49.134 MB (on task 0 after allocating index_b)
          |   Average:       49.134 MB
          | Largest tracked array allocation:
          |   Minimum:       35.629 MB (work_ovl_mom on task 0)
          |   Maximum:       35.629 MB (work_ovl_mom on task 0)
          |   Average:       35.629 MB
          Note:  These values currently only include a subset of arrays which are explicitly tracked.
          The "true" memory usage will be greater.

          Have a nice day.
------------------------------------------------------------
