------------------------------------------------------------
          Invoking FHI-aims ...

          When using FHI-aims, please cite the following reference:

          Volker Blum, Ralf Gehrke, Felix Hanke, Paula Havu,
          Ville Havu, Xinguo Ren, Karsten Reuter, and Matthias Scheffler,
          'Ab Initio Molecular Simulations with Numeric Atom-Centered Orbitals',
          Computer Physics Communications 180, 2175-2196 (2009)

          For any questions about FHI-aims, please visit the aimsclub website
          with its forums and wiki. Contributions to both the forums and the
          wiki are warmly encouraged - they are for you, and everyone is welcome there.

------------------------------------------------------------



  Date     :  20200420, Time     :  205307.835
  Time zero on CPU 1             :   0.112060000000000E+00  s.
  Internal wall clock time zero  :           356647987.835  s.

  FHI-aims created a unique identifier for this run for later identification
  aims_uuid : BFCF4032-2938-4E96-AB78-470328BD8FED

  Build configuration of the current instance of FHI-aims
  -------------------------------------------------------
  FHI-aims version      : 200112
  Commit number         : 23daeca3f
  CMake host system     : Linux-3.10.0-693.21.1.el7.x86_64
  CMake version         : 3.13.3
  Fortran compiler      : /sw/installed/impi/2018.4.274-iccifort-2019.1.144-GCC-8.2.0-2.31.1/bin64/mpiifort (Intel) version 19.0.0.20181018
  Fortran compiler flags: -O3 -ip -fp-model precise
  C compiler            : /sw/installed/impi/2018.4.274-iccifort-2019.1.144-GCC-8.2.0-2.31.1/bin64/mpiicc (Intel) version 19.0.0.20181018
  C compiler flags      : -O3 -ip -fp-model precise
  Architecture          :
  Using MPI
  Using Scalapack
  Using C files
  Using LibXC
  Using SPGlib
  Using i-PI
  Using RLSY
  Linking against: /sw/installed/imkl/2019.1.144-iimpi-2019a/mkl/lib/intel64/libmkl_intel_lp64.so
                   /sw/installed/imkl/2019.1.144-iimpi-2019a/mkl/lib/intel64/libmkl_sequential.so
                   /sw/installed/imkl/2019.1.144-iimpi-2019a/mkl/lib/intel64/libmkl_core.so
                   /sw/installed/imkl/2019.1.144-iimpi-2019a/mkl/lib/intel64/libmkl_blacs_intelmpi_lp64.so
                   /sw/installed/imkl/2019.1.144-iimpi-2019a/mkl/lib/intel64/libmkl_scalapack_lp64.so

  Using       24 parallel tasks.
  Task        0 on host taurusi6278.taurus.hrsk.tu-dresden.de reporting.
  Task        1 on host taurusi6278.taurus.hrsk.tu-dresden.de reporting.
  Task        2 on host taurusi6278.taurus.hrsk.tu-dresden.de reporting.
  Task        3 on host taurusi6278.taurus.hrsk.tu-dresden.de reporting.
  Task        4 on host taurusi6278.taurus.hrsk.tu-dresden.de reporting.
  Task        5 on host taurusi6278.taurus.hrsk.tu-dresden.de reporting.
  Task        6 on host taurusi6278.taurus.hrsk.tu-dresden.de reporting.
  Task        7 on host taurusi6278.taurus.hrsk.tu-dresden.de reporting.
  Task        8 on host taurusi6278.taurus.hrsk.tu-dresden.de reporting.
  Task        9 on host taurusi6278.taurus.hrsk.tu-dresden.de reporting.
  Task       10 on host taurusi6278.taurus.hrsk.tu-dresden.de reporting.
  Task       11 on host taurusi6278.taurus.hrsk.tu-dresden.de reporting.
  Task       12 on host taurusi6278.taurus.hrsk.tu-dresden.de reporting.
  Task       13 on host taurusi6278.taurus.hrsk.tu-dresden.de reporting.
  Task       14 on host taurusi6278.taurus.hrsk.tu-dresden.de reporting.
  Task       15 on host taurusi6278.taurus.hrsk.tu-dresden.de reporting.
  Task       16 on host taurusi6278.taurus.hrsk.tu-dresden.de reporting.
  Task       17 on host taurusi6278.taurus.hrsk.tu-dresden.de reporting.
  Task       18 on host taurusi6278.taurus.hrsk.tu-dresden.de reporting.
  Task       19 on host taurusi6278.taurus.hrsk.tu-dresden.de reporting.
  Task       20 on host taurusi6278.taurus.hrsk.tu-dresden.de reporting.
  Task       21 on host taurusi6278.taurus.hrsk.tu-dresden.de reporting.
  Task       22 on host taurusi6278.taurus.hrsk.tu-dresden.de reporting.
  Task       23 on host taurusi6278.taurus.hrsk.tu-dresden.de reporting.

  Performing system and environment tests:
  | Environment variable OMP_NUM_THREADS correctly set to 1.
  | Maximum stacksize for task 0: unlimited
  | Maximum stacksize for task 1: unlimited
  | Maximum stacksize for task 2: unlimited
  | Maximum stacksize for task 3: unlimited
  | Maximum stacksize for task 4: unlimited
  | Maximum stacksize for task 5: unlimited
  | Maximum stacksize for task 6: unlimited
  | Maximum stacksize for task 7: unlimited
  | Maximum stacksize for task 8: unlimited
  | Maximum stacksize for task 9: unlimited
  | Maximum stacksize for task 10: unlimited
  | Maximum stacksize for task 11: unlimited
  | Maximum stacksize for task 12: unlimited
  | Maximum stacksize for task 13: unlimited
  | Maximum stacksize for task 14: unlimited
  | Maximum stacksize for task 15: unlimited
  | Maximum stacksize for task 16: unlimited
  | Maximum stacksize for task 17: unlimited
  | Maximum stacksize for task 18: unlimited
  | Maximum stacksize for task 19: unlimited
  | Maximum stacksize for task 20: unlimited
  | Maximum stacksize for task 21: unlimited
  | Maximum stacksize for task 22: unlimited
  | Maximum stacksize for task 23: unlimited
  | Current stacksize for task 0: unlimited
  | Current stacksize for task 1: unlimited
  | Current stacksize for task 2: unlimited
  | Current stacksize for task 3: unlimited
  | Current stacksize for task 4: unlimited
  | Current stacksize for task 5: unlimited
  | Current stacksize for task 6: unlimited
  | Current stacksize for task 7: unlimited
  | Current stacksize for task 8: unlimited
  | Current stacksize for task 9: unlimited
  | Current stacksize for task 10: unlimited
  | Current stacksize for task 11: unlimited
  | Current stacksize for task 12: unlimited
  | Current stacksize for task 13: unlimited
  | Current stacksize for task 14: unlimited
  | Current stacksize for task 15: unlimited
  | Current stacksize for task 16: unlimited
  | Current stacksize for task 17: unlimited
  | Current stacksize for task 18: unlimited
  | Current stacksize for task 19: unlimited
  | Current stacksize for task 20: unlimited
  | Current stacksize for task 21: unlimited
  | Current stacksize for task 22: unlimited
  | Current stacksize for task 23: unlimited
  | Checking for scalapack...
  | Testing pdtran()...
  | All pdtran() tests passed.

  Obtaining array dimensions for all initial allocations:
  
  -----------------------------------------------------------------------
  Parsing control.in (first pass over file, find array dimensions only).
  The contents of control.in will be repeated verbatim below
  unless switched off by setting 'verbatim_writeout .false.' .
  in the first line of control.in .
  -----------------------------------------------------------------------
  
  #===============================================================================
  # FHI-aims file: ./control.in
  # Created using the Atomic Simulation Environment (ASE)
  # Thu Apr  2 11:27:09 2020
  #===============================================================================
  xc                                 pbe
  # include_spin_orbit
  # vdw_correction_hirshfeld
  many_body_dispersion
  spin                               none
  k_grid 	 	 27 27 22
  relativistic                       atomic_zora scalar
  energy_tolerance 1e-2
  harmonic_length_scale  0.015
  ### SCF settings
  adjust_scf 	 always 	 3
  # frozen_core_scf 	 .true.
  # charge_mix_param  0.05
  # occupation_type 	 gaussian 	 0.01
  # sc_accuracy_eev   1E-3 	 	 # sum of eigenvalues convergence
  # sc_accuracy_etot  1E-6 	 	 # total energy convergence
  # sc_accuracy_rho   1E-3 	 	 # electron density convergence
  # elsi_restart 	 read_and_write 	 1000
  ### geometry optimisation section
  relax_geometry 	 bfgs 	 1E-2
  relax_unit_cell 	 full
  #===============================================================================
  
  ################################################################################
  #
  #  FHI-aims code project
  # Volker Blum, Fritz Haber Institute Berlin, 2009
  #
  #  Suggested "tight" defaults for Pd atom (to be pasted into control.in file)
  #
  ################################################################################
    species        Pd
  #     global species definitions
      nucleus             46
      mass                106.42
  #
      l_hartree           6
  #
      cut_pot             4.0  2.0  1.0
      basis_dep_cutoff    1e-4
  #
      radial_base         62 7.0
      radial_multiplier   2
      angular_grids specified
        division   0.3627   50
        division   0.7349  110
        division   1.0624  194
        division   1.2496  302
        division   1.6740  434
  #      division   2.0126  590
  #      division   2.0830  770
  #      division   2.7936 1202
  #       outer_grid  974
        outer_grid  434
  ################################################################################
  #
  #  Definition of "minimal" basis
  #
  ################################################################################
  #     valence basis states
      valence      5  s   1.
      valence      4  p   6.
      valence      4  d   9.
  #     ion occupancy
      ion_occ     5  s   0.
      ion_occ     4  p   6.
      ion_occ     4  d   8.
  ################################################################################
  #
  #  Suggested additional basis functions. For production calculations,
  #  uncomment them one after another (the most important basis functions are
  #  listed first).
  #
  #  Constructed for dimers: 2.0 A, 2.275 A, 2.75 A, 3.75 A
  #
  ################################################################################
  #  "First tier" - max. impr. -120.76  meV, min. impr. -5.71 meV
       ionic 5 p auto
       hydro 4 f 8
       hydro 5 g 10
       hydro 3 s 2.6
       hydro 3 d 2.5
  #  "Second tier" - max. impr. -5.00  meV, min. impr. -0.62 meV
  #     hydro 5 f 17.2
  #     hydro 6 h 14
  #     hydro 4 d 4
  #     hydro 5 f 7.6
  #     hydro 3 p 3.3
  #     hydro 4 s 9.4
  #  "Third tier" - max. impr. -0.54  meV, min. impr. -0.14 meV
  #     hydro 4 f 20
  #     hydro 5 g 12.8
  #     hydro 5 d 9.8
  #     hydro 6 h 15.2
  #     hydro 5 s 10
  #     hydro 6 p 9.8
  #  "Fourth tier" - max. impr. -0.15  meV, min. impr. -0.05 meV
  #     hydro 5 f 9.2
  #     hydro 2 s 5.6
  #     hydro 5 f 43.2
  #     hydro 5 d 13.2
  #     hydro 5 g 14
  #     hydro 4 p 4.7
  ################################################################################
  #
  #  FHI-aims code project
  # Volker Blum, Fritz Haber Institute Berlin, 2009
  #
  #  Suggested "tight" defaults for Se atom (to be pasted into control.in file)
  #
  ################################################################################
    species        Se
  #     global species definitions
      nucleus             34
      mass                78.96
  #
      l_hartree           6
  #
      cut_pot             4.0          2.0  1.0
      basis_dep_cutoff    1e-4
  #
      radial_base         55 7.0
      radial_multiplier   2
      angular_grids       specified
        division   0.0830  110
        division   0.1357  194
        division   0.7377  302
        division   0.8610  434
  #      division   0.9640  590
  #      division   1.0773  770
  #      division   2.5539  974
  #      outer_grid  974
        outer_grid  434
  ################################################################################
  #
  #  Definition of "minimal" basis
  #
  ################################################################################
  #     valence basis states
      valence      4  s   2.
      valence      4  p   4.
      valence      3  d  10.
  #     ion occupancy
      ion_occ      4  s   1.
      ion_occ      4  p   3.
      ion_occ      3  d  10.
  ################################################################################
  #
  #  Suggested additional basis functions. For production calculations,
  #  uncomment them one after another (the most important basis functions are
  #  listed first).
  #
  #  Constructed for dimers: 1.85 A, 2.15 A, 2.50 A, 3.00 A, 4.00 A
  #
  ################################################################################
  #  "First tier" - improvements: -336.21 meV to -36.85 meV
       hydro 3 d 4.3
       hydro 2 p 1.6
       hydro 4 f 7.2
       ionic 4 s auto
  #  "Second tier" - improvements: -14.39 meV to -1.49 meV
  #     hydro 5 g 10.4
  #     hydro 4 p 4.5
  #     hydro 4 d 6.2
  #     hydro 4 f 11.2
  #     hydro 1 s 0.65
  #     hydro 6 h 15.2
  #  "Third tier" - improvements: -0.46 meV and below
  #     hydro 5 g 14.4
  #     ionic 4 d auto
  #     hydro 4 f 22.4
  #     hydro 5 f 7.4
  #     hydro 5 p 8
  #     hydro 5 s 9.4
  #  "Fourth tier" - improvements: -0.12 meV and below
  #     hydro 5 d 11.6
  #     hydro 6 h 18
  #     hydro 4 p 4
  #     hydro 5 f 16
  #     hydro 4 s 3.9
  #
  #
  
  -----------------------------------------------------------------------
  Completed first pass over input file control.in .
  -----------------------------------------------------------------------
  
  
  -----------------------------------------------------------------------
  Parsing geometry.in (first pass over file, find array dimensions only).
  The contents of geometry.in will be repeated verbatim below
  unless switched off by setting 'verbatim_writeout .false.' .
  in the first line of geometry.in .
  -----------------------------------------------------------------------
  
  #
  # This is the geometry file that corresponds to the current relaxation step.
  # If you do not want this file to be written, set the "write_restart_geometry" flag to .false.
  #  aims_uuid : 52280A59-5E82-4B0E-A56B-11A099228023
  #
  lattice_vector      5.85483215      0.00000000      0.00000000
  lattice_vector      0.00000000      5.95916343      0.00000000
  lattice_vector      0.00000000      0.00000000      7.43181581
  atom_frac       0.50241678      0.00207585      0.00192039 Pd
  atom_frac       0.00206304      0.00208424      0.50264988 Pd
  atom_frac       0.00214620      0.50244479      0.00196675 Pd
  atom_frac       0.50249888      0.50245266      0.50260340 Pd
  atom_frac       0.61428801      0.12007031      0.40432049 Se
  atom_frac       0.89103089      0.88487745      0.90453332 Se
  atom_frac       0.11390757      0.38453582      0.60073504 Se
  atom_frac       0.39061924      0.62040789      0.10024562 Se
  atom_frac       0.39066260      0.88489901      0.60073536 Se
  atom_frac       0.11394005      0.12007751      0.10026384 Se
  atom_frac       0.89100341      0.62040397      0.40432236 Se
  atom_frac       0.61427029      0.38451744      0.90455049 Se
  #
  # What follows is the current estimated Hessian matrix constructed by the BFGS algorithm.
  # This is NOT the true Hessian matrix of the system.
  # If you do not want this information here, switch it off using the "hessian_to_restart_geometry" keyword.
  #
  trust_radius             0.0122098363
  hessian_block                1       1           5.961155           0.066770          -2.191801           0.066770           6.46524
  hessian_block                1       2          -0.025109           0.512172           0.055644           0.299308           0.17766
  hessian_block                1       3          -0.060061           0.532974           0.046592          -0.053258          -0.12202
  hessian_block                1       4           0.508342           0.192610          -0.079498           0.097996          -0.55035
  hessian_block                1       5          -0.045088          -0.444079          -0.195620          -0.336993           0.40277
  hessian_block                1       6          -1.770846          -0.105891           0.584880           0.442014          -0.42632
  hessian_block                1       7          -0.364061           0.375366           0.277890           0.106612           0.16644
  hessian_block                1       8          -0.206225          -0.510569           0.330775          -0.337319          -1.87475
  hessian_block                1       9          -0.133151           0.009228           0.182780          -0.406193          -0.46716
  hessian_block                1      10          -2.308894           0.889611           1.063487           0.042659          -0.46211
  hessian_block                1      11           0.061399          -0.647639          -0.246156           0.243914           0.29374
  hessian_block                1      12          -0.051551          -0.870554           0.171026          -0.165508          -1.95610
  hessian_block                2       2           6.073651           0.303733           2.282538           0.303733           7.30339
  hessian_block                2       3           0.871267           0.828775           0.443776          -0.418188          -0.51626
  hessian_block                2       4           0.199422           0.628432           0.176560          -0.539542           0.71342
  hessian_block                2       5          -2.075268           0.059019          -0.962597           0.535662          -0.74313
  hessian_block                2       6          -0.555809          -0.063567           0.115967          -0.291500          -0.91437
  hessian_block                2       7           0.016754          -0.711702          -0.395149          -0.460270          -1.55666
  hessian_block                2       8          -0.224860          -0.572437          -0.312551           0.093936          -0.41918
  hessian_block                2       9          -2.038567           0.386410          -0.951964           0.565387          -0.83322
  hessian_block                2      10           0.505321          -0.150121           0.006470           0.183582           0.97769
  hessian_block                2      11          -0.612602          -0.659636          -0.151200          -0.399588          -3.26669
  hessian_block                2      12          -0.568291          -0.348213          -0.212995          -0.085384           0.72437
  hessian_block                3       3           6.553582          -0.541188           2.404599          -0.541188           6.30076
  hessian_block                3       4           0.336248          -0.278307          -0.044148          -0.284700           0.07785
  hessian_block                3       5          -0.572878           0.132464          -0.296967          -0.196572           0.47185
  hessian_block                3       6          -0.757402           0.467969          -0.529063          -0.040536          -1.73447
  hessian_block                3       7           0.098260           0.135467           0.231542           0.196822          -0.11539
  hessian_block                3       8          -2.167809          -0.202269          -0.845373          -0.693771          -0.29562
  hessian_block                3       9          -0.288326           0.344326           0.128372          -0.045809          -0.17284
  hessian_block                3      10           0.479668           0.523278           0.181881           1.140808          -2.20920
  hessian_block                3      11          -0.446835           0.086820          -0.206064          -0.505025           0.27147
  hessian_block                3      12          -2.479803          -0.197113          -1.044891          -0.391776          -0.30909
  hessian_block                4       4           5.950165           0.183149          -1.951380           0.183149           7.08234
  hessian_block                4       5          -0.483708           0.632028           0.213302           0.087498          -2.37041
  hessian_block                4       6          -0.026987           0.509631           0.164938          -0.238760          -0.45644
  hessian_block                4       7          -2.010669          -0.956400           0.665503          -0.192079          -0.14639
  hessian_block                4       8          -0.284532          -0.223519          -0.188297           0.038415          -0.52796
  hessian_block                4       9          -0.273203           0.666519           0.154058           0.125327          -2.21801
  hessian_block                4      10          -0.424880          -0.442546          -0.182201          -0.148537           0.91288
  hessian_block                4      11          -1.814390           0.022380           0.904346          -0.837287          -1.44834
  hessian_block                4      12          -0.109897           0.335006          -0.041306           0.439539           0.57845
  hessian_block                5       5           5.333385          -0.414785          -1.206604          -0.414785           6.37912
  hessian_block                5       6           0.290311          -0.450302          -0.427078           0.203001          -0.18006
  hessian_block                5       7          -0.391991           1.167849           0.074941          -0.909981           0.06532
  hessian_block                5       8           0.129197           0.211314           0.420471           0.497460          -0.02264
  hessian_block                5       9          -1.348351          -0.399192           1.700012          -0.378593          -1.88071
  hessian_block                5      10          -0.157558           0.556255           0.471120           0.039504          -0.06571
  hessian_block                5      11           0.534950          -0.980754          -0.017303           1.003540           0.23793
  hessian_block                5      12           0.352911           0.220020          -0.468428          -0.419579          -0.64730
  hessian_block                6       6           5.713970           0.389698           1.818863           0.389698           5.77562
  hessian_block                6       7          -0.055856          -0.141803          -0.047112           0.459511           0.17254
  hessian_block                6       8          -0.124833           0.365380           0.144078           0.127924           0.25864
  hessian_block                6       9           0.087891           0.127695           0.011409           0.269947           0.79283
  hessian_block                6      10          -1.979501          -1.299796          -2.842786          -1.003799          -2.04047
  hessian_block                6      11           0.256879           0.335876          -0.148148          -0.754519           0.59148
  hessian_block                6      12           0.488095           0.148731           0.304711           0.153398          -0.19195
  hessian_block                7       7           5.457464           0.510895           1.118706           0.510895           6.08163
  hessian_block                7       8          -0.023982          -0.124985           0.038312           0.026202          -0.40326
  hessian_block                7       9           0.378429           0.596319          -0.243432          -0.669653          -0.43913
  hessian_block                7      10           0.268605          -0.586243          -0.164971           0.071828          -0.34423
  hessian_block                7      11          -1.889479           0.451059          -1.694352           0.680048          -2.35813
  hessian_block                7      12           0.082438          -0.047660           0.505621          -0.488097           0.52429
  hessian_block                8       8           4.755579           0.086899          -0.914082           0.086899           5.66295
  hessian_block                8       9           0.237621          -0.503581          -0.212243           0.149676           0.19579
  hessian_block                8      10           0.063901          -0.233051           0.257674          -0.595744          -0.52694
  hessian_block                8      11           0.166446          -0.156715          -0.202721           0.577178           1.18517
  hessian_block                8      12          -0.754593           1.053604           1.714306           0.839075          -1.58518
  hessian_block                9       9           5.030509          -0.530287          -0.797059          -0.530287           6.45779
  hessian_block                9      10          -0.038719           0.266882          -0.143930          -0.202076          -0.09783
  hessian_block                9      11          -0.181954           0.884704          -0.109661          -0.708369           0.54225
  hessian_block                9      12           0.133731          -0.231385           0.661661           0.213009          -0.23272
  hessian_block               10      10           5.859916           0.572392           1.688091           0.572392           6.89655
  hessian_block               10      11          -0.153855           0.059877           0.449419           0.369243          -1.42351
  hessian_block               10      12          -0.548092          -0.160496          -0.213455          -0.465902           0.02991
  hessian_block               11      11           5.535921           0.258082           0.802572           0.258082           7.98739
  hessian_block               11      12           0.109432           0.072783          -0.454197           0.345945          -0.96576
  hessian_block               12      12           4.911529           0.025280          -0.922050           0.025280           5.67812
  hessian_block_lv             1       1          23.340644          -3.661147           4.887285          -3.661147          23.66360
  hessian_block_lv_atom        1       1           0.241371           0.356870           0.051747          -0.418963          -0.64088
  hessian_block_lv_atom        1       2          -0.524346          -0.894064          -0.217303           0.152635          -0.18843
  hessian_block_lv_atom        1       3          -0.588879          -0.994695          -0.248527           0.264653           0.46637
  hessian_block_lv_atom        1       4           0.083025           0.085546          -0.010001           0.771197           0.83562
  hessian_block_lv_atom        1       5           0.296815           0.444153           0.364294           0.114708          -0.06108
  hessian_block_lv_atom        1       6           0.093459          -0.076545          -0.288266          -0.479326          -0.25229
  hessian_block_lv_atom        1       7          -0.558301          -0.822086           0.112226          -0.724213          -0.98282
  hessian_block_lv_atom        1       8          -0.041220           0.218882          -0.231384           0.090321           0.22770
  hessian_block_lv_atom        1       9           0.101922           0.201650          -0.203832          -0.588854          -0.38723
  hessian_block_lv_atom        1      10          -0.206300           0.058630           0.321084           0.527989           0.18034
  hessian_block_lv_atom        1      11           0.603929           0.991838          -0.044271           0.273585           0.78299
  hessian_block_lv_atom        1      12           0.498525           0.429823           0.394233           0.016272           0.01972
  symmetry_n_params 39 3 36
  symmetry_params a1 b2 c3 x0 x1 x2 x3 x4 x5 x6 x7 x8 x9 x10 x11 x12 x13 x14 x15 x16 x17 x18 x19 x20 x21 x22 x23 x24 x25 x26 x27 x28 x
  symmetry_lv a1 , 0 , 0
  symmetry_lv 0 , b2 , 0
  symmetry_lv 0 , 0 , c3
  symmetry_frac x0 , x1 , x2
  symmetry_frac x3 , x4 , x5
  symmetry_frac x6 , x7 , x8
  symmetry_frac x9 , x10 , x11
  symmetry_frac x12 , x13 , x14
  symmetry_frac x15 , x16 , x17
  symmetry_frac x18 , x19 , x20
  symmetry_frac x21 , x22 , x23
  symmetry_frac x24 , x25 , x26
  symmetry_frac x27 , x28 , x29
  symmetry_frac x30 , x31 , x32
  symmetry_frac x33 , x34 , x35
  
  -----------------------------------------------------------------------
  Completed first pass over input file geometry.in .
  -----------------------------------------------------------------------
  

  Basic array size parameters:
  | Number of species                 :        2
  | Number of atoms                   :       12
  | Number of lattice vectors         :        3
  | Max. basis fn. angular momentum   :        4
  | Max. atomic/ionic basis occupied n:        5
  | Max. number of basis fn. types    :        3
  | Max. radial fns per species/type  :       10
  | Max. logarithmic grid size        :     1444
  | Max. radial integration grid size :      125
  | Max. angular integration grid size:      434
  | Max. angular grid division number :        8
  | Radial grid for Hartree potential :     1444
  | Number of spin channels           :        1

------------------------------------------------------------
          Reading file control.in.
------------------------------------------------------------
  XC: Using PBE gradient-corrected functionals.
  Using libMBD for calculating MBD and TS energies
  Spin treatment: No spin polarisation.
  Found k-point grid:        27        27        22
  Scalar relativistic treatment of kinetic energy: on-site free-atom approximation to ZORA.
  Max energy increase before discarding BFGS move:   0.100000E-01 eV
  Assuming qualitatively harmonic for steps shorter than   0.150000E-01 A.
  S.C.F. convergence parameters will be adjusted in iteration number     3 of each new s.c.f. cycle.
  Geometry relaxation: Modified BFGS - TRM (trust radius method) for lattice optimization.
  Convergence accuracy for geometry relaxation: Maximum force <   0.100000E-01 eV/A.
 
  Reading configuration options for species Pd                  .
  | Found nuclear charge :  46.0000
  | Found atomic mass :    106.420000000000      amu
  | Found l_max for Hartree potential  :   6
  | Found cutoff potl. onset [A], width [A], scale factor :    4.00000    2.00000    1.00000
  | Threshold for basis-dependent cutoff potential is   0.100000E-03
  | Found data for basic radial integration grid :    62 points, outermost radius =    7.000 A
  | Found multiplier for basic radial grid :   2
  | Found angular grid specification: user-specified.
  | Specified grid contains     6 separate shells.
  | Check grid settings after all constraints further below.
  | Found free-atom valence shell :  5 s   1.000
  | Found free-atom valence shell :  4 p   6.000
  | Found free-atom valence shell :  4 d   9.000
  | Found free-ion valence shell :  5 s   0.000
  | Found free-ion valence shell :  4 p   6.000
  | Found free-ion valence shell :  4 d   8.000
  | Found ionic basis function :  5 p , default cutoff radius.
  | Found hydrogenic basis function :  4 f   8.000
  | Found hydrogenic basis function :  5 g  10.000
  | Found hydrogenic basis function :  3 s   2.600
  | Found hydrogenic basis function :  3 d   2.500
  Species Pd                  : Missing cutoff potential type.
  Defaulting to exp(1/x)/(1-x)^2 type cutoff potential.
  Species Pd: No 'logarithmic' tag. Using default grid for free atom:
  | Default logarithmic grid data [bohr] : 0.1000E-03 0.1000E+03 0.1012E+01
  | Will include ionic basis functions of  2.0-fold positive Pd                   ion.
  Species Pd: On-site basis accuracy parameter (for Gram-Schmidt orthonormalisation) not specified.
  Using default value basis_acc =  0.1000000E-03.
  Species Pd                  : Using default innermost maximum threshold i_radial=  2 for radial functions.
  Species Pd                  : Default cutoff onset for free atom density etc. : 0.40000000E+01 AA.
  Species Pd                  : Basic radial grid will be enhanced according to radial_multiplier =   2, to contain   125 grid points.
 
  Reading configuration options for species Se                  .
  | Found nuclear charge :  34.0000
  | Found atomic mass :    78.9600000000000      amu
  | Found l_max for Hartree potential  :   6
  | Found cutoff potl. onset [A], width [A], scale factor :    4.00000    2.00000    1.00000
  | Threshold for basis-dependent cutoff potential is   0.100000E-03
  | Found data for basic radial integration grid :    55 points, outermost radius =    7.000 A
  | Found multiplier for basic radial grid :   2
  | Found angular grid specification: user-specified.
  | Specified grid contains     5 separate shells.
  | Check grid settings after all constraints further below.
  | Found free-atom valence shell :  4 s   2.000
  | Found free-atom valence shell :  4 p   4.000
  | Found free-atom valence shell :  3 d  10.000
  | Found free-ion valence shell :  4 s   1.000
  | Found free-ion valence shell :  4 p   3.000
  | Found free-ion valence shell :  3 d  10.000
  | Found hydrogenic basis function :  3 d   4.300
  | Found hydrogenic basis function :  2 p   1.600
  | Found hydrogenic basis function :  4 f   7.200
  | Found ionic basis function :  4 s , default cutoff radius.
  Species Se                  : Missing cutoff potential type.
  Defaulting to exp(1/x)/(1-x)^2 type cutoff potential.
  Species Se: No 'logarithmic' tag. Using default grid for free atom:
  | Default logarithmic grid data [bohr] : 0.1000E-03 0.1000E+03 0.1012E+01
  | Will include ionic basis functions of  2.0-fold positive Se                   ion.
  Species Se: On-site basis accuracy parameter (for Gram-Schmidt orthonormalisation) not specified.
  Using default value basis_acc =  0.1000000E-03.
  Species Se                  : Using default innermost maximum threshold i_radial=  2 for radial functions.
  Species Se                  : Default cutoff onset for free atom density etc. : 0.40000000E+01 AA.
  Species Se                  : Basic radial grid will be enhanced according to radial_multiplier =   2, to contain   111 grid points.
 
  Finished reading input file 'control.in'. Consistency checks are next.
 
  MPI_IN_PLACE appears to work with this MPI implementation.
  | Keeping use_mpi_in_place .true. (see manual).
  Target number of points in a grid batch is not set. Defaulting to  100
  Method for grid partitioning is not set. Defaulting to parallel hash+maxmin partitioning.
  Batch size limit is not set. Defaulting to    200
  By default, will store active basis functions for each batch.
  If in need of memory, prune_basis_once .false. can be used to disable this option.
  communication_type for Hartree potential was not specified.
  Defaulting to calc_hartree .
  Defaulting to Pulay charge density mixer.
  Pulay mixer: Number of relevant iterations not set.
  Defaulting to    8 iterations.
  Pulay mixer: Number of initial linear mixing iterations not set.
  Defaulting to    0 iterations.
  Work space size for distributed Hartree potential not set.
  Defaulting to   0.200000E+03 MB.
  Mixing parameter for charge density mixing has not been set.
  Using default: charge_mix_param =     0.0500.
  The mixing parameter will be adjusted in iteration number     3 of each s.c.f. cycle (i.e., each geometry step).
  Algorithm-dependent basis array size parameters:
  | n_max_pulay                         :        8
  Maximum number of self-consistency iterations not provided.
  Presetting  1000 iterations.
  Presetting      1001 iterations before the initial mixing cycle
  is restarted anyway using the sc_init_iter criterion / keyword.
  Presetting a factor      1.000 between actual scf density residual
  and density convergence criterion sc_accuracy_rho below which sc_init_iter
  takes no effect.
 * No s.c.f. convergence criteria (sc_accuracy_*) were provided in control.in.
 * The run will proceed with a reasonable default guess, but please check whether.
 * the s.c.f. cycles seem to take too much or too little time.
  No maximum number of relaxation steps, defaulting to     1000
  Using explicit Hessian from geometry.in.
  Maximum energy tolerance by which TRM/BFGS trajectory may increase over multiple steps:   0.300000E-02
  No trust radius initializer. Defaulting to   0.200000E+00 A.
  Unit cell relaxation: Unit cell will be relaxed fully.
  Unit cell relaxation: Analytical stress will be used.
  Analytical stress will be computed.
  Analytical stress calculation: Only the upper triangle is calculated.
                                 Final output is symmetrized.
  Analytical stress calculation: scf convergence accuracy of stress not set.
                                 Analytical stress self-consistency will not be checked explicitly.
                                 Be sure to set other criteria like sc_accuracy_rho tight enough.
 * Notice: The s.c.f. convergence criterion sc_accuracy_rho was not provided.
 * We used to stop in this case, and ask the user to provide reasonable
 * scf convergence criteria. However, this led some users to employ criteria
 * that led to extremely long run times, e.g., for simple relaxation.
 * We now preset a default value for sc_accuracy_rho if it is not set.
 * You may still wish to check if this setting is too tight or too loose for your needs.
 * Based on n_atoms, FHI-aims chose sc_accuracy_rho =  0.141421E-05 .
  Force calculation: scf convergence accuracy of forces not set.
  Defaulting to 'sc_accuracy_forces not_checked'.
  Handling of forces: Unphysical translation and rotation will be removed from forces.
  No accuracy limit for integral partition fn. given. Defaulting to  0.1000E-14.
  No threshold value for u(r) in integrations given. Defaulting to  0.1000E-05.
  No occupation type (smearing scheme) given. Defaulting to Gaussian broadening, width =  0.1000E-01 eV.
  The width will be adjusted in iteration number     3 of each s.c.f. cycle (i.e., each geometry step).
  S.C.F. convergence parameters will be adjusted in iteration number     3 of the first full s.c.f. cycle only.
  No accuracy for occupation numbers given. Defaulting to  0.1000E-12.
  No threshold value for occupation numbers given. Defaulting to  0.0000E+00.
  No accuracy for fermi level given. Defaulting to  0.1000E-19.
  Maximum # of iterations to find E_F not set. Defaulting to  200.
  Preferred method for the eigenvalue solver ('KS_method') not specified in 'control.in'.
  Defaulting to serial version, LAPACK (via ELSI), since more k-points than CPUs available.
  Will not use alltoall communication since running on < 1024 CPUs.
  Threshold for basis singularities not set.
  Default threshold for basis singularities:  0.1000E-04
  partition_type (choice of integration weights) for integrals was not specified.
  | Using a version of the partition function of Stratmann and coworkers ('stratmann_sparse').
  | At each grid point, the set of atoms used to build the partition table is smoothly restricted to
  | only those atoms whose free-atom density would be non-zero at that grid point.
  Partitioning for Hartree potential was not defined. Using partition_type for integrals.
  | Adjusted default value of keyword multip_moments_threshold to:       0.10000000E-11
  | This value may affect high angular momentum components of the Hartree potential in periodic systems.
  Angular momentum expansion for Kerker preconditioner not set explicitly.
  | Using default value of   0
  No explicit requirement for turning off preconditioner.
  | By default, it will be turned off when the charge convergence reaches
  | sc_accuracy_rho  =   0.141421E-05
  No special mixing parameter while Kerker preconditioner is on.
  Using default: charge_mix_param =     0.0500.
  No q(lm)/r^(l+1) cutoff set for long-range Hartree potential.
  | Using default value of  0.100000E-09 .
  | Verify using the multipole_threshold keyword.
  Defaulting to new monopole extrapolation.
  Density update method: automatic selection selected.
  Using density matrix based charge density update.
  Using density matrix based charge density update.
  Using packed matrix style: index .
  Geometry relaxation: A file "geometry.in.next_step" is written out by default after each step.
  | This file contains the geometry of the current relaxation step as well as
  | the current Hessian matrix needed to restart the relaxation algorithm.
  | If you do not want part or all of this information, use the keywords
  | "write_restart_geometry" or "hessian_to_restart_geometry" to switch the output off.
  Defaulting to use time-reversal symmetry for k-point grid.
  Charge integration errors on the 3D integration grid will be compensated
  by explicit normalization and distribution of residual charges.
  Use the "compensate_multipole_errors" flag to change this behaviour.
------------------------------------------------------------


------------------------------------------------------------
          Reading geometry description geometry.in.
------------------------------------------------------------
  Input structure read successfully.
  The structure contains       12 atoms,  and a total of        456.000 electrons.

  Input geometry:
  | Unit cell:
  |        5.85483215        0.00000000        0.00000000
  |        0.00000000        5.95916343        0.00000000
  |        0.00000000        0.00000000        7.43181581
  | Atomic structure:
  |       Atom                x [A]            y [A]            z [A]
  |    1: Species Pd            2.94156592        0.01237033        0.01427198
  |    2: Species Pd            0.01207875        0.01242033        3.73560133
  |    3: Species Pd            0.01256564        2.99415062        0.01461652
  |    4: Species Pd            2.94204660        2.99419752        3.73525589
  |    5: Species Se            3.59655319        0.71551860        3.00483541
  |    6: Species Se            5.21683630        5.27312934        6.72232503
  |    7: Species Se            0.66690970        2.29151180        4.46455217
  |    8: Species Se            2.28701008        3.69711201        0.74500698
  |    9: Species Se            2.28726395        5.27325782        4.46455455
  |   10: Species Se            0.66709987        0.71556151        0.74514239
  |   11: Species Se            5.21667541        3.69708865        3.00484931
  |   12: Species Se            3.59644944        2.29140227        6.72245263

  Lattice parameters for 3D lattice (in Angstroms) :     5.854832    5.959163    7.431816
  Angle(s) between unit vectors (in degrees)       :    90.000000   90.000000   90.000000

  | The smallest distance between any two atoms is         2.40493300 AA.
  | The first atom of this pair is atom number                      6 .
  | The second atom of this pair is atom number                    10 .
  | Wigner-Seitz cell of the first atom image           0     0     0 .
  | (The Wigner-Seitz cell of the second atom is 0 0 0  by definition.)

  Symmetry information by spglib:
  | Precision set to  0.1E-04
  | Number of Operations  : 1
  | Space group           : 1
  | International         : P1  g    xB
  | Schoenflies           : C1^1

  Quantities derived from the lattice vectors:
  | Reciprocal lattice vector 1:  1.073162  0.000000  0.000000
  | Reciprocal lattice vector 2:  0.000000  1.054374  0.000000
  | Reciprocal lattice vector 3:  0.000000  0.000000  0.845444
  | Unit cell volume                               :   0.259295E+03  A^3

  Range separation radius for Ewald summation (hartree_convergence_parameter):      3.99888119 bohr.

  Fractional coordinates:
                         L1                L2                L3
       atom_frac         0.50241678        0.00207585        0.00192039  Pd
       atom_frac         0.00206304        0.00208424        0.50264988  Pd
       atom_frac         0.00214620        0.50244479        0.00196675  Pd
       atom_frac         0.50249888        0.50245266        0.50260340  Pd
       atom_frac         0.61428801        0.12007031        0.40432049  Se
       atom_frac         0.89103089        0.88487745        0.90453332  Se
       atom_frac         0.11390757        0.38453582        0.60073504  Se
       atom_frac         0.39061924        0.62040789        0.10024562  Se
       atom_frac         0.39066260        0.88489901        0.60073536  Se
       atom_frac         0.11394005        0.12007751        0.10026384  Se
       atom_frac         0.89100341        0.62040397        0.40432236  Se
       atom_frac         0.61427029        0.38451744        0.90455049  Se

  Number of empty states per atom not set in control.in - providing a guess from actual geometry.
  | Total number of empty states used during s.c.f. cycle:       66
  If you use a very high smearing, use empty_states (per atom!) in control.in to increase this value.

  Structure-dependent array size parameters: 
  | Maximum number of distinct radial functions  :       27
  | Maximum number of basis functions            :      468
  | Number of Kohn-Sham states (occupied + empty):      294
------------------------------------------------------------

------------------------------------------------------------
          Preparing all fixed parts of the calculation.
------------------------------------------------------------
  Determining machine precision:
    2.225073858507201E-308
  Setting up grids for atomic and cluster calculations.

  Creating wave function, potential, and density for free atoms.

  Species: Pd

  List of occupied orbitals and eigenvalues:
    n    l              occ      energy [Ha]    energy [eV]
    1    0           2.0000      -913.269104    -24851.3168
    2    0           2.0000      -130.434372     -3549.2998
    3    0           2.0000       -23.521804      -640.0609
    4    0           2.0000        -3.256918       -88.6253
    5    0           1.0000        -0.157260        -4.2793
    2    1           6.0000      -116.910756     -3181.3035
    3    1           6.0000       -19.103344      -519.8284
    4    1           6.0000        -1.998052       -54.3697
    3    2          10.0000       -12.098182      -329.2083
    4    2           9.0000        -0.243389        -6.6230


  Species: Se

  List of occupied orbitals and eigenvalues:
    n    l              occ      energy [Ha]    energy [eV]
    1    0           2.0000      -466.337810    -12689.6975
    2    0           2.0000       -59.202598     -1610.9847
    3    0           2.0000        -7.847116      -213.5309
    4    0           2.0000        -0.634372       -17.2621
    2    1           6.0000       -52.061107     -1416.6548
    3    1           6.0000        -5.620941      -152.9536
    4    1           4.0000        -0.238469        -6.4891
    3    2          10.0000        -1.951949       -53.1152

  Creating fixed part of basis set: Ionic, confined, hydrogenic.
 
  Pd                   ion:

  List of free ionic orbitals and eigenvalues:
    n    l      energy [Ha]    energy [eV]
    1    0      -914.099884    -24873.9234
    2    0      -131.248265     -3571.4470
    3    0       -24.332473      -662.1203
    4    0        -4.059276      -110.4585
    2    1      -117.724296     -3203.4411
    3    1       -19.913908      -541.8850
    4    1        -2.795328       -76.0648
    3    2       -12.908733      -351.2645
    4    2        -1.004248       -27.3270


  List of ionic basis orbitals and eigenvalues:
    n    l      energy [Ha]    energy [eV]    outer radius [A]
    5    1        -0.516938       -14.0666       5.427025

 
  Pd                   hydrogenic:
 
  List of hydrogenic basis orbitals: 
    n    l      effective z      eigenvalue [eV]  inner max. [A]     outer max. [A]     outer radius [A]   
    4    3         8.000000       -54.4226           1.054686           1.054686           4.629581
    5    4        10.000000       -54.4226           1.330451           1.330451           5.043202
    3    0         2.600000        -9.8948           0.150992           2.606197           5.493778
    3    2         2.500000        -9.3396           1.873517           1.873517           5.493778
 
 
  Se                   ion:

  List of free ionic orbitals and eigenvalues:
    n    l      energy [Ha]    energy [eV]
    1    0      -467.261007    -12714.8189
    2    0       -60.104893     -1635.5374
    3    0        -8.743714      -237.9286
    4    0        -1.414053       -38.4783
    2    1       -52.964156     -1441.2280
    3    1        -6.516916      -177.3343
    4    1        -0.961869       -26.1738
    3    2        -2.844511       -77.4031


  List of ionic basis orbitals and eigenvalues:
    n    l      energy [Ha]    energy [eV]    outer radius [A]
    4    0        -1.414046       -38.4782       4.083166

 
  Se                   hydrogenic:
 
  List of hydrogenic basis orbitals: 
    n    l      effective z      eigenvalue [eV]  inner max. [A]     outer max. [A]     outer radius [A]   
    3    2         4.300000       -27.9518           1.103845           1.103845           5.278265
    2    1         1.600000        -8.6828           1.326010           1.326010           5.475439
    4    3         7.200000       -44.0822           1.173422           1.173422           4.965294
 

  Adding cutoff potential to free-atom effective potential.
  Creating atomic-like basis functions for current effective potential.

  Species Pd                  :

  List of atomic basis orbitals and eigenvalues:
    n    l      energy [Ha]    energy [eV]    outer radius [A]
    1    0      -913.269104    -24851.3168       0.223280
    2    0      -130.434372     -3549.2998       0.615909
    3    0       -23.521804      -640.0609       1.414312
    4    0        -3.256918       -88.6253       3.581357
    5    0        -0.157260        -4.2793       5.427025
    2    1      -116.910756     -3181.3035       0.631154
    3    1       -19.103344      -519.8284       1.540671
    4    1        -1.998052       -54.3697       4.408641
    3    2       -12.098182      -329.2083       1.806051
    4    2        -0.243389        -6.6230       5.361084


  Species Se                  :

  List of atomic basis orbitals and eigenvalues:
    n    l      energy [Ha]    energy [eV]    outer radius [A]
    1    0      -466.337810    -12689.6975       0.309561
    2    0       -59.202598     -1610.9847       0.885812
    3    0        -7.847116      -213.5309       2.355489
    4    0        -0.634372       -17.2621       5.214131
    2    1       -52.061107     -1416.6548       0.907737
    3    1        -5.620941      -152.9536       2.694529
    4    1        -0.238469        -6.4891       5.408909
    3    2        -1.951949       -53.1152       4.083166

  Assembling full basis from fixed parts.
  | Species Pd :   atomic orbital   1 s accepted.
  | Species Pd :   atomic orbital   2 s accepted.
  | Species Pd :   atomic orbital   3 s accepted.
  | Species Pd :   atomic orbital   4 s accepted.
  | Species Pd :   atomic orbital   5 s accepted.
  | Species Pd :    hydro orbital   3 s accepted.
  | Species Pd :   atomic orbital   2 p accepted.
  | Species Pd :   atomic orbital   3 p accepted.
  | Species Pd :   atomic orbital   4 p accepted.
  | Species Pd :    ionic orbital   5 p accepted.
  | Species Pd :   atomic orbital   3 d accepted.
  | Species Pd :   atomic orbital   4 d accepted.
  | Species Pd :    hydro orbital   3 d accepted.
  | Species Pd :    hydro orbital   4 f accepted.
  | Species Pd :    hydro orbital   5 g accepted.
  | Species Se :   atomic orbital   1 s accepted.
  | Species Se :   atomic orbital   2 s accepted.
  | Species Se :   atomic orbital   3 s accepted.
  | Species Se :    ionic orbital   4 s accepted.
  | Species Se :   atomic orbital   4 s accepted.
  | Species Se :   atomic orbital   2 p accepted.
  | Species Se :   atomic orbital   3 p accepted.
  | Species Se :   atomic orbital   4 p accepted.
  | Species Se :    hydro orbital   2 p accepted.
  | Species Se :   atomic orbital   3 d accepted.
  | Species Se :    hydro orbital   3 d accepted.
  | Species Se :    hydro orbital   4 f accepted.
 
  Basis size parameters after reduction:
  | Total number of radial functions:       27
  | Total number of basis functions :      468
 
  Per-task memory consumption for arrays in subroutine allocate_ext:
  |           9.993344MB.
  Testing on-site integration grid accuracy.
  |  Species  Function  <phi|h_atom|phi> (log., in eV)  <phi|h_atom|phi> (rad., in eV)
           1        1             -24851.3167505682             -24851.3148165635
           1        2              -3549.2998457785              -3549.2998098031
           1        3               -640.0608571327               -640.0608534886
           1        4                -88.6252603131                -88.6252593316
           1        5                 -4.2849374515                 -4.2849400622
           1        6                  4.9432123540                  4.9432188418
           1        7              -3181.3035399559              -3181.3035364574
           1        8               -519.8284281886               -519.8284264063
           1        9                -54.3697495804                -54.3697489261
           1       10                  0.8628369484                  0.8628370487
           1       11               -329.2082917394               -329.2082912864
           1       12                 -6.6230267036                 -6.6230265076
           1       13                  5.4924295291                  5.4924115607
           1       14                 25.0740861942                 25.0740861175
           1       15                 38.8271273823                 38.8271278029
           2       16             -12689.6974611609             -12689.6967666984
           2       17              -1610.9846578580              -1610.9846472470
           2       18               -213.5308789869               -213.5308777267
           2       19                -17.0464428502                -17.0464426496
           2       20                  6.7356859379                  6.7356842047
           2       21              -1416.6548010133              -1416.6548002108
           2       22               -152.9535734377               -152.9535727493
           2       23                 -6.4896265677                 -6.4896303794
           2       24                  5.2703037283                  5.2701679583
           2       25                -53.1152220964                -53.1152219035
           2       26                  7.6186674138                  7.6186665630
           2       27                 23.1072799052                 23.1072803137

  Preparing densities etc. for the partition functions (integrals / Hartree potential).

  Preparations completed.
  max(cpu_time)          :      0.555 s.
  Wall clock time (cpu1) :      0.586 s.
------------------------------------------------------------

------------------------------------------------------------
          Begin self-consistency loop: Initialization.

          Date     :  20200420, Time     :  205308.761
------------------------------------------------------------

  Initializing index lists of integration centers etc. from given atomic structure:
  Mapping all atomic coordinates to central unit cell.

  Initializing the k-points
  Using symmetry for reducing the k-points
  | k-points reduced from:    16038 to     8020
  | Number of k-points                             :      8020
  The eigenvectors in the calculations are COMPLEX.
  | K-points in task   0:       334
  | K-points in task   1:       335
  | K-points in task   2:       335
  | K-points in task   3:       335
  | K-points in task   4:       335
  | K-points in task   5:       334
  | K-points in task   6:       334
  | K-points in task   7:       334
  | K-points in task   8:       334
  | K-points in task   9:       334
  | K-points in task  10:       334
  | K-points in task  11:       334
  | K-points in task  12:       334
  | K-points in task  13:       334
  | K-points in task  14:       334
  | K-points in task  15:       334
  | K-points in task  16:       334
  | K-points in task  17:       334
  | K-points in task  18:       334
  | K-points in task  19:       334
  | K-points in task  20:       334
  | K-points in task  21:       334
  | K-points in task  22:       334
  | K-points in task  23:       334
  | Number of basis functions in the Hamiltonian integrals :      5560
  | Number of basis functions in a single unit cell        :       468
  | Number of centers in hartree potential         :      1325
  | Number of centers in hartree multipole         :       769
  | Number of centers in electron density summation:       596
  | Number of centers in basis integrals           :       640
  | Number of centers in integrals                 :       236
  | Number of centers in hamiltonian               :       596
  | Consuming      10776 KiB for k_phase.
  | Number of super-cells (origin) [n_cells]                     :         567
  | Number of super-cells (after PM_index) [n_cells]             :          86
  | Number of super-cells in hamiltonian [n_cells_in_hamiltonian]:          86
  | Size of matrix packed + index [n_hamiltonian_matrix_size] :     1293635

  Initializing relaxation algorithms.
  | Estimated reciprocal-space cutoff momentum G_max:         2.42890824 bohr^-1 .
  | Reciprocal lattice points for long-range Hartree potential:     418
  Partitioning the integration grid into batches with parallel hashing+maxmin method.
  | Number of batches:     4178
  | Maximal batch size:     110
  | Minimal batch size:      49
  | Average batch size:      91.943
  | Standard deviation of batch sizes:      11.302

  Integration load balanced across    24 MPI tasks.
  Work distribution over tasks is as follows:
  Task     0 has      15995 integration points.
  Task     1 has      15999 integration points.
  Task     2 has      16016 integration points.
  Task     3 has      16024 integration points.
  Task     4 has      15994 integration points.
  Task     5 has      16034 integration points.
  Task     6 has      15963 integration points.
  Task     7 has      16033 integration points.
  Task     8 has      15993 integration points.
  Task     9 has      16030 integration points.
  Task    10 has      16030 integration points.
  Task    11 has      16018 integration points.
  Task    12 has      16021 integration points.
  Task    13 has      16036 integration points.
  Task    14 has      15962 integration points.
  Task    15 has      16019 integration points.
  Task    16 has      15975 integration points.
  Task    17 has      16013 integration points.
  Task    18 has      15975 integration points.
  Task    19 has      16023 integration points.
  Task    20 has      16000 integration points.
  Task    21 has      16000 integration points.
  Task    22 has      15962 integration points.
  Task    23 has      16021 integration points.
  Initializing partition tables, free-atom densities, potentials, etc. across the integration grid (initialize_grid_storage).
  | initialize_grid_storage: Actual outermost partition radius vs. multipole_radius_free
  | (-- VB: in principle, multipole_radius_free should be larger, hence this output)
  | Species        1: Confinement radius =              6.000000000000000 AA, multipole_radius_free =              6.058219618167466 AA.
  | Species        1: outer_partition_radius set to              6.058219618167466 AA .
  | Species        2: Confinement radius =              6.000000000000000 AA, multipole_radius_free =              6.037996416842453 AA.
  | Species        2: outer_partition_radius set to              6.037996416842453 AA .
  | The sparse table of interatomic distances needs       2897.83 kbyte instead of      3276.80 kbyte of memory.
  | Net number of integration points:   384136
  | of which are non-zero points    :   322117
  | Numerical average free-atom electrostatic potential    :    -17.07874269 eV
  Renormalizing the initial density to the exact electron count on the 3D integration grid.
  | Initial density: Formal number of electrons (from input files) :     456.0000000000
  | Integrated number of electrons on 3D grid     :     456.0000568826
  | Charge integration error                      :       0.0000568826
  | Normalization factor for density and gradient :       0.9999998753
  Renormalizing the free-atom superposition density to the exact electron count on the 3D integration grid.
  | Formal number of electrons (from input files) :     456.0000000000
  | Integrated number of electrons on 3D grid     :     456.0000568826
  | Charge integration error                      :       0.0000568826
  | Normalization factor for density and gradient :       0.9999998753
  Obtaining max. number of non-zero basis functions in each batch (get_n_compute_maxes).
  | Maximal number of non-zero basis functions:     1023 in task     0
  | Maximal number of non-zero basis functions:     1010 in task     1
  | Maximal number of non-zero basis functions:     1009 in task     2
  | Maximal number of non-zero basis functions:     1040 in task     3
  | Maximal number of non-zero basis functions:     1034 in task     4
  | Maximal number of non-zero basis functions:     1012 in task     5
  | Maximal number of non-zero basis functions:     1028 in task     6
  | Maximal number of non-zero basis functions:     1034 in task     7
  | Maximal number of non-zero basis functions:     1030 in task     8
  | Maximal number of non-zero basis functions:     1026 in task     9
  | Maximal number of non-zero basis functions:     1025 in task    10
  | Maximal number of non-zero basis functions:     1030 in task    11
  | Maximal number of non-zero basis functions:     1029 in task    12
  | Maximal number of non-zero basis functions:     1026 in task    13
  | Maximal number of non-zero basis functions:     1029 in task    14
  | Maximal number of non-zero basis functions:     1021 in task    15
  | Maximal number of non-zero basis functions:     1024 in task    16
  | Maximal number of non-zero basis functions:     1012 in task    17
  | Maximal number of non-zero basis functions:     1034 in task    18
  | Maximal number of non-zero basis functions:     1042 in task    19
  | Maximal number of non-zero basis functions:      998 in task    20
  | Maximal number of non-zero basis functions:     1027 in task    21
  | Maximal number of non-zero basis functions:      999 in task    22
  | Maximal number of non-zero basis functions:     1015 in task    23
  Allocating      701.229 MB for KS_eigenvector_complex
  Integrating Hamiltonian matrix: batch-based integration.
  Time summed over all CPUs for integration: real work       63.910 s, elapsed       64.694 s
  Integrating overlap matrix.
  Time summed over all CPUs for integration: real work       46.238 s, elapsed       46.978 s
  Decreasing sparse matrix size:
  | Tolerance:  0.1000E-12
  Hamiltonian matrix
  | Array has  1119456 nonzero elements out of  1293635 elements
  | Sparsity factor is 0.135
  Overlap matrix
  | Array has  1033030 nonzero elements out of  1293635 elements
  | Sparsity factor is 0.201
  New size of hamiltonian matrix:     1119527

  Updating Kohn-Sham eigenvalues and eigenvectors using ELSI and the (modified) LAPACK eigensolver.
  Singularity check in k-point 24, task 0 (analysis for other k-points/tasks may follow below):
  Overlap matrix is not singular
  | Lowest and highest eigenvalues :  0.5825E-03,  0.7299E+01
  Finished singularity check of overlap matrix
  | Time :     0.074 s
  Starting LAPACK eigensolver
  Finished Cholesky decomposition
  | Time :     0.018 s
  Finished transformation to standard eigenproblem
  | Time :     0.021 s
  Finished solving standard eigenproblem
  | Time :     0.071 s
  Finished back-transformation of eigenvectors
  | Time :     0.008 s

  Obtaining occupation numbers and chemical potential using ELSI.
  | Chemical potential (Fermi level):    -4.63700274 eV
  Writing Kohn-Sham eigenvalues.
  K-point:       1 at    0.000000    0.000000    0.000000 (in units of recip. lattice)

  State    Occupation    Eigenvalue [Ha]    Eigenvalue [eV]
      1       2.00000        -913.279499       -24851.59961
      2       2.00000        -913.279489       -24851.59932
      3       2.00000        -913.279488       -24851.59931
      4       2.00000        -913.279413       -24851.59726
      5       2.00000        -466.350323       -12690.03795
      6       2.00000        -466.350286       -12690.03695
      7       2.00000        -466.350249       -12690.03594
      8       2.00000        -466.350245       -12690.03581
      9       2.00000        -466.350244       -12690.03581
     10       2.00000        -466.350232       -12690.03546
     11       2.00000        -466.350218       -12690.03511
     12       2.00000        -466.350199       -12690.03459
     13       2.00000        -130.445084        -3549.59133
     14       2.00000        -130.445073        -3549.59103
     15       2.00000        -130.445072        -3549.59102
     16       2.00000        -130.444996        -3549.58895
     17       2.00000        -116.921492        -3181.59567
     18       2.00000        -116.921483        -3181.59543
     19       2.00000        -116.921481        -3181.59537
     20       2.00000        -116.921480        -3181.59536
     21       2.00000        -116.921472        -3181.59514
     22       2.00000        -116.921471        -3181.59511
     23       2.00000        -116.921429        -3181.59396
     24       2.00000        -116.921418        -3181.59367
     25       2.00000        -116.921418        -3181.59366
     26       2.00000        -116.921404        -3181.59329
     27       2.00000        -116.921396        -3181.59305
     28       2.00000        -116.921342        -3181.59160
     29       2.00000         -59.215537        -1611.33675
     30       2.00000         -59.215500        -1611.33573
     31       2.00000         -59.215462        -1611.33470
     32       2.00000         -59.215458        -1611.33458
     33       2.00000         -59.215457        -1611.33457
     34       2.00000         -59.215444        -1611.33422
     35       2.00000         -59.215431        -1611.33386
     36       2.00000         -59.215412        -1611.33333
     37       2.00000         -52.074053        -1417.00707
     38       2.00000         -52.074029        -1417.00642
     39       2.00000         -52.074016        -1417.00608
     40       2.00000         -52.073991        -1417.00538
     41       2.00000         -52.073980        -1417.00509
     42       2.00000         -52.073978        -1417.00505
     43       2.00000         -52.073974        -1417.00492
     44       2.00000         -52.073973        -1417.00491
     45       2.00000         -52.073960        -1417.00456
     46       2.00000         -52.073953        -1417.00435
     47       2.00000         -52.073950        -1417.00426
     48       2.00000         -52.073948        -1417.00423
     49       2.00000         -52.073947        -1417.00419
     50       2.00000         -52.073943        -1417.00407
     51       2.00000         -52.073935        -1417.00387
     52       2.00000         -52.073928        -1417.00367
     53       2.00000         -52.073922        -1417.00352
     54       2.00000         -52.073906        -1417.00307
     55       2.00000         -52.073903        -1417.00299
     56       2.00000         -52.073901        -1417.00294
     57       2.00000         -52.073901        -1417.00293
     58       2.00000         -52.073888        -1417.00258
     59       2.00000         -52.073875        -1417.00223
     60       2.00000         -52.073856        -1417.00171
     61       2.00000         -23.533278         -640.37307
     62       2.00000         -23.533266         -640.37276
     63       2.00000         -23.533266         -640.37274
     64       2.00000         -23.533185         -640.37054
     65       2.00000         -19.115072         -520.14757
     66       2.00000         -19.115060         -520.14724
     67       2.00000         -19.115059         -520.14721
     68       2.00000         -19.114984         -520.14519
     69       2.00000         -19.114977         -520.14498
     70       2.00000         -19.114974         -520.14490
     71       2.00000         -19.114971         -520.14483
     72       2.00000         -19.114890         -520.14262
     73       2.00000         -19.114451         -520.13069
     74       2.00000         -19.114441         -520.13040
     75       2.00000         -19.114440         -520.13038
     76       2.00000         -19.114362         -520.12825
     77       2.00000         -12.109879         -329.52657
     78       2.00000         -12.109867         -329.52624
     79       2.00000         -12.109866         -329.52622
     80       2.00000         -12.109843         -329.52560
     81       2.00000         -12.109831         -329.52527
     82       2.00000         -12.109831         -329.52526
     83       2.00000         -12.109784         -329.52398
     84       2.00000         -12.109749         -329.52302
     85       2.00000         -12.109500         -329.51626
     86       2.00000         -12.109488         -329.51594
     87       2.00000         -12.109488         -329.51593
     88       2.00000         -12.109444         -329.51473
     89       2.00000         -12.109433         -329.51445
     90       2.00000         -12.109432         -329.51440
     91       2.00000         -12.109408         -329.51376
     92       2.00000         -12.109361         -329.51248
     93       2.00000         -12.109353         -329.51225
     94       2.00000         -12.109350         -329.51219
     95       2.00000         -12.109350         -329.51217
     96       2.00000         -12.109271         -329.51002
     97       2.00000          -7.861848         -213.93178
     98       2.00000          -7.861804         -213.93057
     99       2.00000          -7.861761         -213.92941
    100       2.00000          -7.861760         -213.92937
    101       2.00000          -7.861756         -213.92928
    102       2.00000          -7.861742         -213.92889
    103       2.00000          -7.861727         -213.92847
    104       2.00000          -7.861706         -213.92790
    105       2.00000          -5.636253         -153.37026
    106       2.00000          -5.636217         -153.36926
    107       2.00000          -5.636173         -153.36806
    108       2.00000          -5.636166         -153.36789
    109       2.00000          -5.636160         -153.36772
    110       2.00000          -5.636149         -153.36742
    111       2.00000          -5.636130         -153.36689
    112       2.00000          -5.636110         -153.36635
    113       2.00000          -5.636006         -153.36352
    114       2.00000          -5.635956         -153.36217
    115       2.00000          -5.635906         -153.36081
    116       2.00000          -5.635902         -153.36071
    117       2.00000          -5.635892         -153.36042
    118       2.00000          -5.635871         -153.35985
    119       2.00000          -5.635832         -153.35878
    120       2.00000          -5.635820         -153.35847
    121       2.00000          -5.635340         -153.34541
    122       2.00000          -5.635296         -153.34421
    123       2.00000          -5.635260         -153.34324
    124       2.00000          -5.635255         -153.34309
    125       2.00000          -5.635253         -153.34304
    126       2.00000          -5.635240         -153.34269
    127       2.00000          -5.635229         -153.34239
    128       2.00000          -5.635207         -153.34180
    129       2.00000          -3.273933          -89.08826
    130       2.00000          -3.273917          -89.08782
    131       2.00000          -3.273915          -89.08777
    132       2.00000          -3.273798          -89.08457
    133       2.00000          -2.020222          -54.97305
    134       2.00000          -2.020209          -54.97269
    135       2.00000          -2.020173          -54.97171
    136       2.00000          -2.020038          -54.96804
    137       2.00000          -2.019215          -54.94564
    138       2.00000          -2.019213          -54.94557
    139       2.00000          -2.019168          -54.94435
    140       2.00000          -2.019038          -54.94081
    141       2.00000          -2.013031          -54.77737
    142       2.00000          -2.013024          -54.77717
    143       2.00000          -2.013021          -54.77709
    144       2.00000          -2.012917          -54.77426
    145       2.00000          -1.969259          -53.58625
    146       2.00000          -1.969191          -53.58441
    147       2.00000          -1.969151          -53.58332
    148       2.00000          -1.969124          -53.58259
    149       2.00000          -1.968200          -53.55744
    150       2.00000          -1.968156          -53.55625
    151       2.00000          -1.968114          -53.55510
    152       2.00000          -1.968094          -53.55457
    153       2.00000          -1.967762          -53.54552
    154       2.00000          -1.967741          -53.54495
    155       2.00000          -1.967698          -53.54380
    156       2.00000          -1.967683          -53.54339
    157       2.00000          -1.967629          -53.54190
    158       2.00000          -1.967600          -53.54112
    159       2.00000          -1.967554          -53.53986
    160       2.00000          -1.967544          -53.53961
    161       2.00000          -1.967343          -53.53412
    162       2.00000          -1.967310          -53.53322
    163       2.00000          -1.967298          -53.53291
    164       2.00000          -1.967281          -53.53244
    165       2.00000          -1.967261          -53.53191
    166       2.00000          -1.967255          -53.53173
    167       2.00000          -1.967230          -53.53104
    168       2.00000          -1.967229          -53.53101
    169       2.00000          -1.967208          -53.53044
    170       2.00000          -1.967203          -53.53032
    171       2.00000          -1.967190          -53.52997
    172       2.00000          -1.967181          -53.52971
    173       2.00000          -1.967159          -53.52911
    174       2.00000          -1.967152          -53.52892
    175       2.00000          -1.967145          -53.52874
    176       2.00000          -1.967129          -53.52831
    177       2.00000          -1.966676          -53.51598
    178       2.00000          -1.966649          -53.51524
    179       2.00000          -1.966613          -53.51427
    180       2.00000          -1.966602          -53.51397
    181       2.00000          -1.966324          -53.50639
    182       2.00000          -1.966302          -53.50581
    183       2.00000          -1.966262          -53.50472
    184       2.00000          -1.966257          -53.50458
    185       2.00000          -0.759461          -20.66597
    186       2.00000          -0.740455          -20.14879
    187       2.00000          -0.720364          -19.60210
    188       2.00000          -0.718701          -19.55685
    189       2.00000          -0.652679          -17.76030
    190       2.00000          -0.640749          -17.43567
    191       2.00000          -0.639417          -17.39943
    192       2.00000          -0.627529          -17.07594
    193       2.00000          -0.418363          -11.38425
    194       2.00000          -0.410579          -11.17241
    195       2.00000          -0.389514          -10.59921
    196       2.00000          -0.376415          -10.24278
    197       2.00000          -0.370710          -10.08752
    198       2.00000          -0.369253          -10.04789
    199       2.00000          -0.366435           -9.97121
    200       2.00000          -0.366082           -9.96159
    201       2.00000          -0.364576           -9.92063
    202       2.00000          -0.362848           -9.87360
    203       2.00000          -0.361323           -9.83210
    204       2.00000          -0.351696           -9.57014
    205       2.00000          -0.342020           -9.30683
    206       2.00000          -0.330909           -9.00450
    207       2.00000          -0.324682           -8.83505
    208       2.00000          -0.316707           -8.61803
    209       2.00000          -0.316479           -8.61184
    210       2.00000          -0.306008           -8.32691
    211       2.00000          -0.288625           -7.85389
    212       2.00000          -0.286403           -7.79341
    213       2.00000          -0.285113           -7.75831
    214       2.00000          -0.280018           -7.61967
    215       2.00000          -0.279150           -7.59606
    216       2.00000          -0.277232           -7.54386
    217       2.00000          -0.276171           -7.51500
    218       2.00000          -0.275569           -7.49862
    219       2.00000          -0.273696           -7.44764
    220       2.00000          -0.270317           -7.35571
    221       2.00000          -0.265430           -7.22273
    222       2.00000          -0.263823           -7.17900
    223       2.00000          -0.263450           -7.16883
    224       2.00000          -0.257905           -7.01795
    225       2.00000          -0.224143           -6.09925
    226       2.00000          -0.215123           -5.85380
    227       2.00000          -0.212896           -5.79319
    228       0.00000          -0.164335           -4.47178
    229       0.00000          -0.152662           -4.15414
    230       0.00000          -0.135198           -3.67893
    231       0.00000          -0.129881           -3.53424
    232       0.00000          -0.128553           -3.49811
    233       0.00000          -0.125833           -3.42408
    234       0.00000          -0.115558           -3.14449
    235       0.00000          -0.114955           -3.12809
    236       0.00000          -0.082120           -2.23459
    237       0.00000          -0.037343           -1.01615
    238       0.00000          -0.030134           -0.81998
    239       0.00000          -0.002411           -0.06561
    240       0.00000           0.022222            0.60468
    241       0.00000           0.025850            0.70341
    242       0.00000           0.027375            0.74491
    243       0.00000           0.057646            1.56863
    244       0.00000           0.089397            2.43262
    245       0.00000           0.102139            2.77935
    246       0.00000           0.111463            3.03305
    247       0.00000           0.118620            3.22783
    248       0.00000           0.122845            3.34279
    249       0.00000           0.124972            3.40065
    250       0.00000           0.125594            3.41759
    251       0.00000           0.137649            3.74561
    252       0.00000           0.151811            4.13098
    253       0.00000           0.160091            4.35631
    254       0.00000           0.170855            4.64919
    255       0.00000           0.176852            4.81239
    256       0.00000           0.189526            5.15727
    257       0.00000           0.191958            5.22344
    258       0.00000           0.198817            5.41010
    259       0.00000           0.220183            5.99149
    260       0.00000           0.231466            6.29851
    261       0.00000           0.247575            6.73685
    262       0.00000           0.257885            7.01740
    263       0.00000           0.267251            7.27226
    264       0.00000           0.280290            7.62708
    265       0.00000           0.281181            7.65133
[...]
  |                x                y                z                |
  |                                                                   |
  |  x        -0.00019019       0.00000399       0.00003934           |
  |  y         0.00000399       0.00013577       0.00001149           |
  |  z         0.00003934       0.00001149      -0.00002850           |
  |                                                                   |
  |  Pressure:       0.00002764   [eV/A**3]                           |
  |                                                                   |
  +-------------------------------------------------------------------+

 * Warning: Stress tensor is anisotropic. Be aware that pressure is an isotropic quantity.


  Leaving Libmbd.

  Timings for VdW correction (Tkatchenko-Scheffler 2009 or later):
  | CPU time:       66.418 s, Wall clock time:       66.425 s.
  Removing unitary transformations (pure translations, rotations) from forces on atoms.
  Atomic forces before filtering:
  | Net force on center of mass :  -0.279170E-04  0.205371E-04  0.754599E-05 eV/A
  Atomic forces after filtering:
  | Net force on center of mass :   0.696899E-18  0.000000E+00 -0.139380E-17 eV/A

  Energy and forces in a compact form:
  | Total energy uncorrected      :         -0.108791111532112E+07 eV
  | Total energy corrected        :         -0.108791111638774E+07 eV  <-- do not rely on this value for anything but (periodic) metals
  | Electronic free energy        :         -0.108791111745437E+07 eV
  Total atomic forces (unitary forces cleaned) [eV/Ang]:
  |    1          0.145850863102425E-03         -0.292788812341475E-02          0.255500037929046E-02
  |    2          0.973364984333893E-03         -0.281987275116530E-03         -0.164833456471048E-02
  |    3         -0.227254145413312E-02         -0.175572232818644E-02          0.199669265714922E-02
  |    4          0.476287043515862E-03         -0.601512835325474E-03         -0.153661494588502E-02
  |    5          0.124413859037147E-02         -0.248759805575338E-03         -0.188423449365298E-03
  |    6          0.212838435502923E-02          0.336445859856224E-02         -0.675250768055191E-03
  |    7         -0.195275365088087E-02          0.151741978319539E-02         -0.136539897579854E-03
  |    8         -0.379170207574170E-02         -0.449568051529161E-04          0.159865151505128E-02
  |    9         -0.187897380884397E-02          0.412467392974619E-04         -0.132717747259220E-04
  |   10         -0.254246098994474E-03         -0.738835908623246E-03         -0.459766297154753E-03
  |   11          0.957914304235747E-03         -0.480519771132672E-03          0.644171456156613E-03
  |   12          0.422427694800551E-02          0.215705773147227E-02         -0.213631431017105E-02

  ------------------------------------ 
  Start decomposition of the XC Energy 
  ------------------------------------ 
  X and C from original XC functional choice 
  Hartree-Fock Energy :          0.000000000 Ha              0.000000000 eV
  X Energy            :      -1261.088201284 Ha         -34315.955933564 eV
  C Energy            :        -23.237032494 Ha           -632.311825838 eV
  Total XC Energy     :      -1284.325233779 Ha         -34948.267759402 eV
  ------------------------------------ 
  LDA X and C from self-consistent density 
  X Energy LDA        :      -1197.518261178 Ha         -32586.129850684 eV
  C Energy LDA        :        -42.068250164 Ha          -1144.735330462 eV
  ------------------------------------ 
  End decomposition of the XC Energy 
  ------------------------------------ 

------------------------------------------------------------
  Relaxation / MD: End force evaluation.       :  max(cpu_time)    wall_clock(cpu1)
  | Time for this force evaluation             :     1182.369 s        1184.091 s

------------------------------------------------------------
  Geometry optimization: Attempting to predict improved coordinates.

  +-------------------------------------------------------------------+
  | Generalized derivatives on lattice vectors [eV/A]                 |
  +-------------------------------------------------------------------+
  |lattice_vector      -0.00850493       0.00017831       0.00175901  |
  |lattice_vector       0.00017502       0.00595967       0.00050431  |
  |lattice_vector       0.00136878       0.00039980      -0.00099190  |
  +-------------------------------------------------------------------+
  | Forces on lattice vectors cleaned from atomic contributions [eV/A]|
  +-------------------------------------------------------------------+
  |lattice_vector       0.00850493      -0.00017831      -0.00175901  |
  |lattice_vector      -0.00017502      -0.00595967      -0.00050431  |
  |lattice_vector      -0.00136878      -0.00039980       0.00099190  |
  +-------------------------------------------------------------------+
  Symmetrized total atomic cartesian forces [eV/Ang]:
  |   1     0.1458508631E-03    -0.2927888123E-02     0.2555000379E-02
  |   2     0.9733649843E-03    -0.2819872751E-03    -0.1648334565E-02
  |   3    -0.2272541454E-02    -0.1755722328E-02     0.1996692657E-02
  |   4     0.4762870435E-03    -0.6015128353E-03    -0.1536614946E-02
  |   5     0.1244138590E-02    -0.2487598056E-03    -0.1884234494E-03
  |   6     0.2128384355E-02     0.3364458599E-02    -0.6752507681E-03
  |   7    -0.1952753651E-02     0.1517419783E-02    -0.1365398976E-03
  |   8    -0.3791702076E-02    -0.4495680515E-04     0.1598651515E-02
  |   9    -0.1878973809E-02     0.4124673930E-04    -0.1327177473E-04
  |  10    -0.2542460990E-03    -0.7388359086E-03    -0.4597662972E-03
  |  11     0.9579143042E-03    -0.4805197711E-03     0.6441714562E-03
  |  12     0.4224276948E-02     0.2157057731E-02    -0.2136314310E-02
  +-------------------------------------------------------------------+
  | Symmetrized forces on lattice vectors cleaned from symmetrized
  | atomic contributions [eV/A]|
  +-------------------------------------------------------------------+
  |lattice_vector       0.00850493       0.00000000       0.00000000  |
  |lattice_vector       0.00000000      -0.00595967       0.00000000  |
  |lattice_vector       0.00000000       0.00000000       0.00099190  |
  +-------------------------------------------------------------------+
  Removing unitary transformations (pure translations, rotations) from forces on atoms.
  Atomic forces before filtering:
  | Net force on center of mass :   0.000000E+00  0.000000E+00 -0.139380E-17 eV/A
  Atomic forces after filtering:
  | Net force on center of mass :   0.000000E+00  0.348449E-18 -0.348449E-18 eV/A
  Net remaining forces (excluding translations, rotations) in present geometry:
  || Forces on atoms   || =   0.422428E-02 eV/A.
  || Forces on lattice || =   0.850493E-02 eV/A^3.
  Maximum force component is  0.850493E-02 eV/A.
  Present geometry is converged.

  Symmetry-reduced parameters:
  | atomic   1          0.502322502561341E+00
  | atomic   2          0.240651080743821E-02
  | atomic   3          0.214543506269223E-02
  | atomic   4          0.233351157277803E-02
  | atomic   5          0.237402405574069E-02
  | atomic   6          0.502655144843967E+00
  | atomic   7          0.250703164918334E-02
  | atomic   8          0.502376751583375E+00
  | atomic   9          0.215388361111111E-02
  | atomic  10          0.502451927052678E+00
  | atomic  11          0.502393272578935E+00
  | atomic  12          0.502633412643749E+00
  | atomic  13          0.614496457619172E+00
  | atomic  14          0.120778090230568E+00
  | atomic  15          0.405706077138136E+00
  | atomic  16          0.890266396894190E+00
  | atomic  17          0.884014202632399E+00
  | atomic  18          0.905536831916209E+00
  | atomic  19          0.114522367195220E+00
  | atomic  20          0.384053386367217E+00
  | atomic  21          0.599288780280868E+00
  | atomic  22          0.390363517434831E+00
  | atomic  23          0.620786184483080E+00
  | atomic  24          0.990870749634238E-01
  | atomic  25          0.390339532989019E+00
  | atomic  26          0.884086853488202E+00
  | atomic  27          0.599300825436014E+00
  | atomic  28          0.114496678240330E+00
  | atomic  29          0.120765754914000E+00
  | atomic  30          0.990932058821907E-01
  | atomic  31          0.890284792638392E+00
  | atomic  32          0.620764906637183E+00
  | atomic  33          0.405710755518385E+00
  | atomic  34          0.614462245863231E+00
  | atomic  35          0.384046987285231E+00
  | atomic  36          0.905535511622548E+00
  | lattice  1          0.584433744836034E+01
  | lattice  2          0.595409213259531E+01
  | lattice  3          0.751050198040698E+01
  Symmetry-reduced forces:
  | atomic   1          0.852401661105176E-03
  | atomic   2         -0.174329156407430E-01
  | atomic   3          0.191893354086016E-01
  | atomic   4          0.568867342886524E-02
  | atomic   5         -0.167897821626332E-02
  | atomic   6         -0.123798200126313E-01
  | atomic   7         -0.132814991233414E-01
  | atomic   8         -0.104537325012768E-01
  | atomic   9          0.149961641557833E-01
  | atomic  10          0.278358220458858E-02
  | atomic  11         -0.358146284046651E-02
  | atomic  12         -0.115407495941924E-01
  | atomic  13          0.727116575465821E-02
  | atomic  14         -0.148113880128206E-02
  | atomic  15         -0.141515468961318E-02
  | atomic  16          0.124389963906016E-01
  | atomic  17          0.200322964721421E-01
  | atomic  18         -0.507147223074984E-02
  | atomic  19         -0.114125512892654E-01
  | atomic  20          0.903485719296817E-02
  | atomic  21         -0.102548317117806E-02
  | atomic  22         -0.221599864342828E-01
  | atomic  23         -0.267676959867598E-03
  | atomic  24          0.120066753697732E-01
  | atomic  25         -0.109813569955151E-01
  | atomic  26          0.245586885946228E-03
  | atomic  27         -0.996776903625518E-04
  | atomic  28         -0.148589999745294E-02
  | atomic  29         -0.439909707081258E-02
  | atomic  30         -0.345307568530515E-02
  | atomic  31          0.559837444056501E-02
  | atomic  32         -0.286105898885754E-02
  | atomic  33          0.483805099718589E-02
  | atomic  34          0.246880999594739E-01
  | atomic  35          0.128433204685129E-01
  | atomic  36         -0.160447928573114E-01
  | lattice  1          0.850493171484617E-02
  | lattice  2         -0.595966885456361E-02
  | lattice  3          0.991902349151930E-03
------------------------------------------------------------
  Final atomic structure:
                         x [A]             y [A]             z [A]
  lattice_vector         5.84433745        0.00000000        0.00000000
  lattice_vector         0.00000000        5.95409213        0.00000000
  lattice_vector         0.00000000        0.00000000        7.51050198

            atom        -2.90859524        0.01432859        0.01611329  Pd
            atom         0.01363783        0.01413516       -3.73530952  Pd
            atom         0.01465194       -2.96289467        0.01617675  Pd
            atom        -2.90783884       -2.96279630       -3.73547274  Pd
            atom        -2.25301279        0.71912388        3.04705630  Se
            atom        -0.64132021       -0.69059012       -0.70946581  Se
            atom         0.66930736        2.28668925       -3.00954241  Se
            atom         2.28141612       -2.25787400        0.74419367  Se
            atom         2.28127595       -0.69015755       -3.00945194  Se
            atom         0.66915722        0.71905043        0.74423972  Se
            atom        -0.64121270       -2.25800069        3.04709143  Se
            atom        -2.25321273        2.28665115       -0.70947573  Se

  Fractional coordinates:
                         L1                L2                L3
       atom_frac        -0.49767750        0.00240651        0.00214544  Pd
       atom_frac         0.00233351        0.00237402       -0.49734486  Pd
       atom_frac         0.00250703       -0.49762325        0.00215388  Pd
       atom_frac        -0.49754807       -0.49760673       -0.49736659  Pd
       atom_frac        -0.38550354        0.12077809        0.40570608  Se
       atom_frac        -0.10973360       -0.11598580       -0.09446317  Se
       atom_frac         0.11452237        0.38405339       -0.40071122  Se
       atom_frac         0.39036352       -0.37921382        0.09908707  Se
       atom_frac         0.39033953       -0.11591315       -0.40069917  Se
       atom_frac         0.11449668        0.12076575        0.09909321  Se
       atom_frac        -0.10971521       -0.37923509        0.40571076  Se
       atom_frac        -0.38553775        0.38404699       -0.09446449  Se
------------------------------------------------------------

------------------------------------------------------------------------------
  Final output of selected total energy values:

  The following output summarizes some interesting total energy values
  at the end of a run (AFTER all relaxation, molecular dynamics, etc.).

  | Total energy of the DFT / Hartree-Fock s.c.f. calculation      :       -1087911.115321117 eV
  | Final zero-broadening corrected energy (caution - metals only) :       -1087911.116387744 eV
  | For reference only, the value of 1 Hartree used in FHI-aims is :             27.211384500 eV
  | For reference only, the overall average (free atom contribution
  | + realspace contribution) of the electrostatic potential after
  | s.c.f. convergence is                                          :            -16.953581669 eV

  Before relying on these values, please be sure to understand exactly which
  total energy value is referred to by a given number. Different objects may
  all carry the same name 'total energy'. Definitions:

  Total energy of the DFT / Hartree-Fock s.c.f. calculation:
  | Note that this energy does not include ANY quantities calculated after the
  | s.c.f. cycle, in particular not ANY RPA, MP2, etc. many-body perturbation terms.

  Final zero-broadening corrected energy:
  | For metallic systems only, a broadening of the occupation numbers at the Fermi
  | level can be extrapolated back to zero broadening by an electron-gas inspired
  | formula. For all systems that are not real metals, this value can be
  | meaningless and should be avoided.

------------------------------------------------------------------------------
  Methods described in the following list of references were used in this FHI-aims run.
  If you publish the results, please make sure to cite these reference if they apply.
  FHI-aims is an academic code, and for our developers (often, Ph.D. students
  and postdocs), scientific credit in the community is essential.
  Thank you for helping us!

  For any use of FHI-aims, please cite:

    Volker Blum, Ralf Gehrke, Felix Hanke, Paula Havu, Ville Havu,
    Xinguo Ren, Karsten Reuter, and Matthias Scheffler
    'Ab initio molecular simulations with numeric atom-centered orbitals'
    Computer Physics Communications 180, 2175-2196 (2009)
    http://dx.doi.org/10.1016/j.cpc.2009.06.022


  For the analytical stress tensor used in your run, please cite:

    Franz Knuth, Christian Carbogno, Viktor Atalla, Volker Blum, Matthias Scheffler
    'All-electron formalism for total energy strain derivatives and
    stress tensor components for numeric atom-centered orbitals'
    Computer Physics Communications 190, 33-50 (2015).
    http://dx.doi.org/10.1016/j.cpc.2015.01.003


  The provided symmetry information was generated with SPGlib:

    Atsushi Togo, Yusuke Seto, Dimitar Pashov
    SPGlib 1.7.3 obtained from http://spglib.sourceforge.net
    Copyright (C) 2008 Atsushi Togo


  The ELSI infrastructure was used in your run to solve the Kohn-Sham electronic structure.
  Please check out http://elsi-interchange.org to learn more.
  If scalability is important for your project, please acknowledge ELSI by citing:

    V. W-z. Yu, F. Corsetti, A. Garcia, W. P. Huhn, M. Jacquelin, W. Jia,
    B. Lange, L. Lin, J. Lu, W. Mi, A. Seifitokaldani, A. Vazquez-Mayagoitia,
    C. Yang, H. Yang, and V. Blum
    'ELSI: A unified software interface for Kohn-Sham electronic structure solvers'
    Computer Physics Communications 222, 267-285 (2018).
    http://dx.doi.org/10.1016/j.cpc.2017.09.007


  For the real-space grid partitioning and parallelization used in this calculation, please cite:

    Ville Havu, Volker Blum, Paula Havu, and Matthias Scheffler,
    'Efficient O(N) integration for all-electron electronic structure calculation'
    'using numerically tabulated basis functions'
    Journal of Computational Physics 228, 8367-8379 (2009).
    http://dx.doi.org/10.1016/j.jcp.2009.08.008

  Of course, there are many other important community references, e.g., those cited in the
  above references. Our list is limited to references that describe implementations in the
  FHI-aims code. The reason is purely practical (length of this list) - please credit others as well.

------------------------------------------------------------
          Leaving FHI-aims.
          Date     :  20200420, Time     :  230246.485

          Computational steps:
          | Number of self-consistency cycles          :          104
          | Number of SCF (re)initializations          :            5
          | Number of relaxation steps                 :            4

          Detailed time accounting                     :  max(cpu_time)    wall_clock(cpu1)
          | Total time                                 :     7774.605 s        7778.650 s
          | Preparation time                           :        0.555 s           0.586 s
          | Boundary condition initalization           :        1.070 s           1.068 s
          | Grid partitioning                          :        1.742 s           1.743 s
          | Preloading free-atom quantities on grid    :        4.636 s           4.636 s
          | Free-atom superposition energy             :        0.720 s           0.720 s
          | Total time for integrations                :      295.327 s         295.349 s
          | Total time for solution of K.-S. equations :     4828.415 s        4836.319 s
          | Total time for EV reorthonormalization     :       59.363 s          58.995 s
          | Total time for density & force components  :     1919.627 s        1919.847 s
          | Total time for mixing & preconditioning    :       72.218 s          72.228 s
          | Total time for Hartree multipole update    :        0.466 s           0.475 s
          | Total time for Hartree multipole sum       :      238.751 s         238.774 s
          | Total time for total energy evaluation     :        7.356 s           7.489 s
          | Total time for scaled ZORA corrections     :        0.000 s           0.000 s
          | Total time for vdW correction              :      331.969 s         332.019 s

          Partial memory accounting:
          | Residual value for overall tracked memory usage across tasks:     0.000000 MB (should be 0.000000 MB)
          | Peak values for overall tracked memory usage:
          |   Minimum:     1449.577 MB (on task  7 after allocating d_wave)
          |   Maximum:     1454.516 MB (on task  2 after allocating d_wave)
          |   Average:     1450.699 MB
          | Largest tracked array allocation:
          |   Minimum:      701.229 MB (KS_eigenvector_complex on task  0)
          |   Maximum:      703.328 MB (KS_eigenvector_complex on task  1)
          |   Average:      701.579 MB
          Note:  These values currently only include a subset of arrays which are explicitly tracked.
          The "true" memory usage will be greater.

          Have a nice day.
------------------------------------------------------------
