16   
1    

1    
  0.0000000520163341   0.0070710678116865   0.0070710678118531
  -0.0016179671   -0.1071531516   -0.1071531404
   0.0004046744    0.0024470454    0.0024470429
   0.0005675639    0.0059593329    0.0015977677
  -0.0009183500    0.0018533331    0.0059241418
   0.0005675751    0.0015977687    0.0059593182
  -0.0009183301    0.0059241251    0.0018533169
   0.0004053148    0.0009763837    0.0009764022
   0.0001893123   -0.0062937605   -0.0062937563
   0.0476739576    0.0513176937    0.0513176980
  -0.0457546282    0.0501687478    0.0501687540
  -0.0000618417    0.0038304174    0.0042161893
  -0.0003628219   -0.0096641792   -0.0097453106
  -0.0000618322    0.0042161931    0.0038304051
  -0.0003628147   -0.0097453163   -0.0096641648
  -0.0118621553    0.0022081268    0.0022081180
   0.0121123431    0.0023572400    0.0023572180