phonopy:
  version: 2.6.1
  frequency_unit_conversion_factor: 15.633304
  symmetry_tolerance: 1.00000e-03

physical_unit:
  atomic_mass: "AMU"

supercell_matrix:
- [   2,   0,   0 ]
- [   0,   2,   0 ]
- [   0,   0,   2 ]

space_group:
  type: "Fd-3m"
  number: 227
  Hall_symbol: "F 4d 2 3 -1d"

primitive_cell:
  lattice:
  - [     0.000019985270000,     2.716785059356000,     2.716785059420000 ] # a
  - [     2.716784969786000,     0.000019985515000,     2.716785059175000 ] # b
  - [     2.716784969848000,     2.716785059173000,     0.000019985453000 ] # c
  points:
  - symbol: Si # 1
    coordinates: [  0.000000163803000,  0.000000163796000,  0.000000163848000 ]
    mass: 28.085000
  - symbol: Si # 2
    coordinates: [  0.249999836197000,  0.249999836204001,  0.249999836152999 ]
    mass: 28.085000
  reciprocal_lattice: # without 2pi
  - [    -0.184043096069157,     0.184041736154023,     0.184041736145487 ] # a*
  - [     0.184041742221716,    -0.184043090034613,     0.184041736178637 ] # b*
  - [     0.184041742213316,     0.184041736178772,    -0.184043090026077 ] # c*

unit_cell:
  lattice:
  - [     0.000019985270000,     2.716785059356000,     2.716785059420000 ] # a
  - [     2.716784969786000,     0.000019985515000,     2.716785059175000 ] # b
  - [     2.716784969848000,     2.716785059173000,     0.000019985453000 ] # c
  points:
  - symbol: Si # 1
    coordinates: [  0.000000163803000,  0.000000163796000,  0.000000163848000 ]
    mass: 28.085000
    reduced_to: 1
  - symbol: Si # 2
    coordinates: [  0.249999836197000,  0.249999836204001,  0.249999836152999 ]
    mass: 28.085000
    reduced_to: 2

supercell:
  lattice:
  - [     0.000039970540000,     5.433570118712000,     5.433570118840000 ] # a
  - [     5.433569939572000,     0.000039971030000,     5.433570118350000 ] # b
  - [     5.433569939696000,     5.433570118346000,     0.000039970906000 ] # c
  points:
  - symbol: Si # 1
    coordinates: [  0.000000081901500,  0.000000081898000,  0.000000081924000 ]
    mass: 28.085000
    reduced_to: 1
  - symbol: Si # 2
    coordinates: [  0.500000081901500,  0.000000081898000,  0.000000081924000 ]
    mass: 28.085000
    reduced_to: 1
  - symbol: Si # 3
    coordinates: [  0.000000081901500,  0.500000081898000,  0.000000081924000 ]
    mass: 28.085000
    reduced_to: 1
  - symbol: Si # 4
    coordinates: [  0.500000081901500,  0.500000081898000,  0.000000081924000 ]
    mass: 28.085000
    reduced_to: 1
  - symbol: Si # 5
    coordinates: [  0.000000081901500,  0.000000081898000,  0.500000081924000 ]
    mass: 28.085000
    reduced_to: 1
  - symbol: Si # 6
    coordinates: [  0.500000081901500,  0.000000081898000,  0.500000081924000 ]
    mass: 28.085000
    reduced_to: 1
  - symbol: Si # 7
    coordinates: [  0.000000081901500,  0.500000081898000,  0.500000081924000 ]
    mass: 28.085000
    reduced_to: 1
  - symbol: Si # 8
    coordinates: [  0.500000081901500,  0.500000081898000,  0.500000081924000 ]
    mass: 28.085000
    reduced_to: 1
  - symbol: Si # 9
    coordinates: [  0.124999918098500,  0.124999918102001,  0.124999918076500 ]
    mass: 28.085000
    reduced_to: 9
  - symbol: Si # 10
    coordinates: [  0.624999918098500,  0.124999918102001,  0.124999918076500 ]
    mass: 28.085000
    reduced_to: 9
  - symbol: Si # 11
    coordinates: [  0.124999918098500,  0.624999918102001,  0.124999918076500 ]
    mass: 28.085000
    reduced_to: 9
  - symbol: Si # 12
    coordinates: [  0.624999918098500,  0.624999918102001,  0.124999918076500 ]
    mass: 28.085000
    reduced_to: 9
  - symbol: Si # 13
    coordinates: [  0.124999918098500,  0.124999918102001,  0.624999918076500 ]
    mass: 28.085000
    reduced_to: 9
  - symbol: Si # 14
    coordinates: [  0.624999918098500,  0.124999918102001,  0.624999918076500 ]
    mass: 28.085000
    reduced_to: 9
  - symbol: Si # 15
    coordinates: [  0.124999918098500,  0.624999918102001,  0.624999918076500 ]
    mass: 28.085000
    reduced_to: 9
  - symbol: Si # 16
    coordinates: [  0.624999918098500,  0.624999918102001,  0.624999918076500 ]
    mass: 28.085000
    reduced_to: 9

displacements:
- atom:    1
  displacement:
    [   0.0000000520163341,  0.0070710678116865,  0.0070710678118531 ]
  forces:
  - [  -0.0016179670542025, -0.1071531515854860, -0.1071531404242590 ]
  - [   0.0004046743720109,  0.0024470453908924,  0.0024470428676793 ]
  - [   0.0005675639285016,  0.0059593328954164,  0.0015977677235503 ]
  - [  -0.0009183500093031,  0.0018533330777309,  0.0059241417968741 ]
  - [   0.0005675751226307,  0.0015977687038816,  0.0059593182064279 ]
  - [  -0.0009183301176776,  0.0059241251216603,  0.0018533168540826 ]
  - [   0.0004053148439256,  0.0009763837105282,  0.0009764022346645 ]
  - [   0.0001893123012255, -0.0062937604837757, -0.0062937562609751 ]
  - [   0.0476739575564727,  0.0513176936851973,  0.0513176980285294 ]
  - [  -0.0457546282194739,  0.0501687477582562,  0.0501687539970389 ]
  - [  -0.0000618417399415,  0.0038304173632867,  0.0042161893025517 ]
  - [  -0.0003628218843794, -0.0096641792145951, -0.0097453105662776 ]
  - [  -0.0000618322431414,  0.0042161930617664,  0.0038304050531154 ]
  - [  -0.0003628147278723, -0.0097453163136268, -0.0096641647562384 ]
  - [  -0.0118621552717700,  0.0022081267818510,  0.0022081179717498 ]
  - [   0.0121123431429948,  0.0023572400470160,  0.0023572179714862 ]
