# Thermal properties / unit cell (natom)

unit:
  temperature:   K
  free_energy:   kJ/mol
  entropy:       J/K/mol
  heat_capacity: J/K/mol

natom: 2    
cutoff_frequency:    0.000
num_modes: 546750
num_integrated_modes: 546747

zero_point_energy:      11.9212528
high_T_entropy:        172.5104959

thermal_properties:
- temperature:         0.0000000
  free_energy:        11.9212528
  entropy:             0.0000000
  heat_capacity:       0.0000000
  energy:             11.9212528

- temperature:        10.0000000
  free_energy:        11.9209459
  entropy:             0.1186047
  heat_capacity:       0.3381295
  energy:             11.9221319

- temperature:        20.0000000
  free_energy:        11.9168674
  entropy:             0.8245491
  heat_capacity:       2.1759473
  energy:             11.9333584

- temperature:        30.0000000
  free_energy:        11.9021028
  entropy:             2.2223408
  heat_capacity:       4.9538230
  energy:             11.9687730

- temperature:        40.0000000
  free_energy:        11.8710861
  entropy:             4.0236467
  heat_capacity:       7.6380219
  energy:             12.0320320

- temperature:        50.0000000
  free_energy:        11.8211289
  entropy:             5.9793191
  heat_capacity:       9.9016280
  energy:             12.1200949

- temperature:        60.0000000
  free_energy:        11.7514401
  entropy:             7.9553838
  heat_capacity:      11.7773208
  energy:             12.2287632

- temperature:        70.0000000
  free_energy:        11.6621482
  entropy:             9.8946512
  heat_capacity:      13.3922652
  energy:             12.3547738

- temperature:        80.0000000
  free_energy:        11.5537281
  entropy:            11.7802021
  heat_capacity:      14.8666645
  energy:             12.4961442

- temperature:        90.0000000
  free_energy:        11.4267193
  entropy:            13.6134000
  heat_capacity:      16.2852805
  energy:             12.6519253

- temperature:       100.0000000
  free_energy:        11.2816082
  entropy:            15.4021886
  heat_capacity:      17.6960807
  energy:             12.8218270

- temperature:       110.0000000
  free_energy:        11.1187940
  entropy:            17.1553893
  heat_capacity:      19.1182196
  energy:             13.0058868

- temperature:       120.0000000
  free_energy:        10.9385944
  entropy:            18.8803056
  heat_capacity:      20.5519231
  energy:             13.2042311

- temperature:       130.0000000
  free_energy:        10.7412649
  entropy:            20.5820427
  heat_capacity:      21.9870522
  energy:             13.4169305

- temperature:       140.0000000
  free_energy:        10.5270205
  entropy:            22.2636333
  heat_capacity:      23.4092966
  energy:             13.6439292

- temperature:       150.0000000
  free_energy:        10.2960546
  entropy:            23.9264665
  heat_capacity:      24.8040704
  energy:             13.8850246

- temperature:       160.0000000
  free_energy:        10.0485529
  entropy:            25.5707707
  heat_capacity:      26.1586168
  energy:             14.1398762

- temperature:       170.0000000
  free_energy:         9.7847026
  entropy:            27.1960379
  heat_capacity:      27.4629001
  energy:             14.4080291

- temperature:       180.0000000
  free_energy:         9.5046986
  entropy:            28.8013549
  heat_capacity:      28.7097604
  energy:             14.6889425

- temperature:       190.0000000
  free_energy:         9.2087456
  entropy:            30.3856417
  heat_capacity:      29.8946762
  energy:             14.9820175

- temperature:       200.0000000
  free_energy:         8.8970595
  entropy:            31.9478109
  heat_capacity:      31.0153527
  energy:             15.2866217

- temperature:       210.0000000
  free_energy:         8.5698665
  entropy:            33.4868672
  heat_capacity:      32.0712686
  energy:             15.6021086

- temperature:       220.0000000
  free_energy:         8.2274020
  entropy:            35.0019626
  heat_capacity:      33.0632475
  energy:             15.9278338

- temperature:       230.0000000
  free_energy:         7.8699094
  entropy:            36.4924216
  heat_capacity:      33.9930872
  energy:             16.2631663

- temperature:       240.0000000
  free_energy:         7.4976374
  entropy:            37.9577466
  heat_capacity:      34.8632540
  energy:             16.6074966

- temperature:       250.0000000
  free_energy:         7.1108393
  entropy:            39.3976112
  heat_capacity:      35.6766418
  energy:             16.9602421

- temperature:       260.0000000
  free_energy:         6.7097706
  entropy:            40.8118461
  heat_capacity:      36.4363869
  energy:             17.3208506

- temperature:       270.0000000
  free_energy:         6.2946879
  entropy:            42.2004219
  heat_capacity:      37.1457295
  energy:             17.6888018

- temperature:       280.0000000
  free_energy:         5.8658474
  entropy:            43.5634307
  heat_capacity:      37.8079140
  energy:             18.0636080

- temperature:       290.0000000
  free_energy:         5.4235039
  entropy:            44.9010677
  heat_capacity:      38.4261182
  energy:             18.4448135

- temperature:       300.0000000
  free_energy:         4.9679097
  entropy:            46.2136143
  heat_capacity:      39.0034056
  energy:             18.8319940

- temperature:       310.0000000
  free_energy:         4.4993141
  entropy:            47.5014223
  heat_capacity:      39.5426948
  energy:             19.2247550

- temperature:       320.0000000
  free_energy:         4.0179624
  entropy:            48.7649002
  heat_capacity:      40.0467420
  energy:             19.6227305

- temperature:       330.0000000
  free_energy:         3.5240957
  entropy:            50.0045010
  heat_capacity:      40.5181318
  energy:             20.0255810

- temperature:       340.0000000
  free_energy:         3.0179503
  entropy:            51.2207116
  heat_capacity:      40.9592759
  energy:             20.4329923

- temperature:       350.0000000
  free_energy:         2.4997577
  entropy:            52.4140443
  heat_capacity:      41.3724154
  energy:             20.8446732

- temperature:       360.0000000
  free_energy:         1.9697439
  entropy:            53.5850285
  heat_capacity:      41.7596264
  energy:             21.2603542

- temperature:       370.0000000
  free_energy:         1.4281298
  entropy:            54.7342051
  heat_capacity:      42.1228278
  energy:             21.6797857

- temperature:       380.0000000
  free_energy:         0.8751307
  entropy:            55.8621208
  heat_capacity:      42.4637902
  energy:             22.1027366

- temperature:       390.0000000
  free_energy:         0.3109565
  entropy:            56.9693241
  heat_capacity:      42.7841453
  energy:             22.5289928

- temperature:       400.0000000
  free_energy:        -0.2641886
  entropy:            58.0563610
  heat_capacity:      43.0853954
  energy:             22.9583559

- temperature:       410.0000000
  free_energy:        -0.8501054
  entropy:            59.1237733
  heat_capacity:      43.3689231
  energy:             23.3906417

- temperature:       420.0000000
  free_energy:        -1.4466004
  entropy:            60.1720950
  heat_capacity:      43.6360000
  energy:             23.8256795

- temperature:       430.0000000
  free_energy:        -2.0534854
  entropy:            61.2018515
  heat_capacity:      43.8877961
  energy:             24.2633108

- temperature:       440.0000000
  free_energy:        -2.6705772
  entropy:            62.2135576
  heat_capacity:      44.1253876
  energy:             24.7033881

- temperature:       450.0000000
  free_energy:        -3.2976980
  entropy:            63.2077167
  heat_capacity:      44.3497648
  energy:             25.1457745

- temperature:       460.0000000
  free_energy:        -3.9346747
  entropy:            64.1848198
  heat_capacity:      44.5618393
  energy:             25.5903424

- temperature:       470.0000000
  free_energy:        -4.5813392
  entropy:            65.1453452
  heat_capacity:      44.7624505
  energy:             26.0369731

- temperature:       480.0000000
  free_energy:        -5.2375279
  entropy:            66.0897577
  heat_capacity:      44.9523716
  energy:             26.4855558

- temperature:       490.0000000
  free_energy:        -5.9030821
  entropy:            67.0185089
  heat_capacity:      45.1323157
  energy:             26.9359872

- temperature:       500.0000000
  free_energy:        -6.5778474
  entropy:            67.9320368
  heat_capacity:      45.3029405
  energy:             27.3881710

- temperature:       510.0000000
  free_energy:        -7.2616735
  entropy:            68.8307658
  heat_capacity:      45.4648530
  energy:             27.8420170

- temperature:       520.0000000
  free_energy:        -7.9544147
  entropy:            69.7151070
  heat_capacity:      45.6186141
  energy:             28.2974409

- temperature:       530.0000000
  free_energy:        -8.6559290
  entropy:            70.5854583
  heat_capacity:      45.7647421
  energy:             28.7543638

- temperature:       540.0000000
  free_energy:        -9.3660785
  entropy:            71.4422045
  heat_capacity:      45.9037167
  energy:             29.2127119

- temperature:       550.0000000
  free_energy:       -10.0847290
  entropy:            72.2857179
  heat_capacity:      46.0359818
  energy:             29.6724158

- temperature:       560.0000000
  free_energy:       -10.8117500
  entropy:            73.1163581
  heat_capacity:      46.1619489
  energy:             30.1334106

- temperature:       570.0000000
  free_energy:       -11.5470144
  entropy:            73.9344728
  heat_capacity:      46.2819994
  energy:             30.5956351

- temperature:       580.0000000
  free_energy:       -12.2903988
  entropy:            74.7403980
  heat_capacity:      46.3964875
  energy:             31.0590320

- temperature:       590.0000000
  free_energy:       -13.0417828
  entropy:            75.5344580
  heat_capacity:      46.5057420
  energy:             31.5235474

- temperature:       600.0000000
  free_energy:       -13.8010495
  entropy:            76.3169665
  heat_capacity:      46.6100685
  energy:             31.9891304

- temperature:       610.0000000
  free_energy:       -14.5680847
  entropy:            77.0882262
  heat_capacity:      46.7097513
  energy:             32.4557333

- temperature:       620.0000000
  free_energy:       -15.3427775
  entropy:            77.8485296
  heat_capacity:      46.8050552
  energy:             32.9233109

- temperature:       630.0000000
  free_energy:       -16.1250197
  entropy:            78.5981592
  heat_capacity:      46.8962267
  energy:             33.3918206

- temperature:       640.0000000
  free_energy:       -16.9147060
  entropy:            79.3373881
  heat_capacity:      46.9834960
  energy:             33.8612224

- temperature:       650.0000000
  free_energy:       -17.7117337
  entropy:            80.0664798
  heat_capacity:      47.0670775
  energy:             34.3314782

- temperature:       660.0000000
  free_energy:       -18.5160026
  entropy:            80.7856893
  heat_capacity:      47.1471717
  energy:             34.8025523

- temperature:       670.0000000
  free_energy:       -19.3274153
  entropy:            81.4952627
  heat_capacity:      47.2239659
  energy:             35.2744107

- temperature:       680.0000000
  free_energy:       -20.1458766
  entropy:            82.1954379
  heat_capacity:      47.2976352
  energy:             35.7470212

- temperature:       690.0000000
  free_energy:       -20.9712935
  entropy:            82.8864450
  heat_capacity:      47.3683437
  energy:             36.2203535

- temperature:       700.0000000
  free_energy:       -21.8035756
  entropy:            83.5685063
  heat_capacity:      47.4362449
  energy:             36.6943787

- temperature:       710.0000000
  free_energy:       -22.6426345
  entropy:            84.2418367
  heat_capacity:      47.5014828
  energy:             37.1690695

- temperature:       720.0000000
  free_energy:       -23.4883840
  entropy:            84.9066443
  heat_capacity:      47.5641923
  energy:             37.6444000

- temperature:       730.0000000
  free_energy:       -24.3407397
  entropy:            85.5631302
  heat_capacity:      47.6245003
  energy:             38.1203454

- temperature:       740.0000000
  free_energy:       -25.1996195
  entropy:            86.2114890
  heat_capacity:      47.6825257
  energy:             38.5968824

- temperature:       750.0000000
  free_energy:       -26.0649430
  entropy:            86.8519089
  heat_capacity:      47.7383805
  energy:             39.0739887

- temperature:       760.0000000
  free_energy:       -26.9366318
  entropy:            87.4845722
  heat_capacity:      47.7921698
  energy:             39.5516431

- temperature:       770.0000000
  free_energy:       -27.8146092
  entropy:            88.1096554
  heat_capacity:      47.8439928
  energy:             40.0298255

- temperature:       780.0000000
  free_energy:       -28.6988002
  entropy:            88.7273294
  heat_capacity:      47.8939426
  energy:             40.5085167

- temperature:       790.0000000
  free_energy:       -29.5891316
  entropy:            89.3377595
  heat_capacity:      47.9421073
  energy:             40.9876984

- temperature:       800.0000000
  free_energy:       -30.4855318
  entropy:            89.9411062
  heat_capacity:      47.9885695
  energy:             41.4673532

- temperature:       810.0000000
  free_energy:       -31.3879307
  entropy:            90.5375247
  heat_capacity:      48.0334077
  energy:             41.9474644

- temperature:       820.0000000
  free_energy:       -32.2962597
  entropy:            91.1271657
  heat_capacity:      48.0766954
  energy:             42.4280162

- temperature:       830.0000000
  free_energy:       -33.2104519
  entropy:            91.7101750
  heat_capacity:      48.1185026
  energy:             42.9089933

- temperature:       840.0000000
  free_energy:       -34.1304416
  entropy:            92.2866941
  heat_capacity:      48.1588951
  energy:             43.3903815

- temperature:       850.0000000
  free_energy:       -35.0561646
  entropy:            92.8568604
  heat_capacity:      48.1979352
  energy:             43.8721667

- temperature:       860.0000000
  free_energy:       -35.9875580
  entropy:            93.4208069
  heat_capacity:      48.2356819
  energy:             44.3543359

- temperature:       870.0000000
  free_energy:       -36.9245604
  entropy:            93.9786628
  heat_capacity:      48.2721911
  energy:             44.8368763

- temperature:       880.0000000
  free_energy:       -37.8671114
  entropy:            94.5305536
  heat_capacity:      48.3075156
  energy:             45.3197758

- temperature:       890.0000000
  free_energy:       -38.8151520
  entropy:            95.0766009
  heat_capacity:      48.3417056
  energy:             45.8030228

- temperature:       900.0000000
  free_energy:       -39.7686244
  entropy:            95.6169229
  heat_capacity:      48.3748086
  energy:             46.2866062

- temperature:       910.0000000
  free_energy:       -40.7274718
  entropy:            96.1516343
  heat_capacity:      48.4068697
  energy:             46.7705155

- temperature:       920.0000000
  free_energy:       -41.6916387
  entropy:            96.6808468
  heat_capacity:      48.4379318
  energy:             47.2547403

- temperature:       930.0000000
  free_energy:       -42.6610707
  entropy:            97.2046685
  heat_capacity:      48.4680354
  energy:             47.7392709

- temperature:       940.0000000
  free_energy:       -43.6357145
  entropy:            97.7232047
  heat_capacity:      48.4972193
  energy:             48.2240980

- temperature:       950.0000000
  free_energy:       -44.6155176
  entropy:            98.2365578
  heat_capacity:      48.5255201
  energy:             48.7092124

- temperature:       960.0000000
  free_energy:       -45.6004287
  entropy:            98.7448273
  heat_capacity:      48.5529728
  energy:             49.1946055

- temperature:       970.0000000
  free_energy:       -46.5903975
  entropy:            99.2481099
  heat_capacity:      48.5796107
  energy:             49.6802691

- temperature:       980.0000000
  free_energy:       -47.5853746
  entropy:            99.7464997
  heat_capacity:      48.6054653
  energy:             50.1661951

- temperature:       990.0000000
  free_energy:       -48.5853115
  entropy:           100.2400883
  heat_capacity:      48.6305668
  energy:             50.6523759

- temperature:      1000.0000000
  free_energy:       -49.5901606
  entropy:           100.7289647
  heat_capacity:      48.6549439
  energy:             51.1388041
