------------------------------------------------------------
          Invoking FHI-aims ...

          When using FHI-aims, please cite the following reference:

          Volker Blum, Ralf Gehrke, Felix Hanke, Paula Havu,
          Ville Havu, Xinguo Ren, Karsten Reuter, and Matthias Scheffler,
          'Ab Initio Molecular Simulations with Numeric Atom-Centered Orbitals',
          Computer Physics Communications 180, 2175-2196 (2009)

          For any questions about FHI-aims, please visit the aimsclub website
          with its forums and wiki. Contributions to both the forums and the
          wiki are warmly encouraged - they are for you, and everyone is welcome there.

------------------------------------------------------------



  Date     :  20200420, Time     :  205305.547
  Time zero on CPU 1             :   0.101791000000000E+00  s.
  Internal wall clock time zero  :           356647985.547  s.

  FHI-aims created a unique identifier for this run for later identification
  aims_uuid : 45CEC5D9-D0A4-4B47-A66A-19FA138B0EB7

  Build configuration of the current instance of FHI-aims
  -------------------------------------------------------
  FHI-aims version      : 200112
  Commit number         : 23daeca3f
  CMake host system     : Linux-3.10.0-693.21.1.el7.x86_64
  CMake version         : 3.13.3
  Fortran compiler      : /sw/installed/impi/2018.4.274-iccifort-2019.1.144-GCC-8.2.0-2.31.1/bin64/mpiifort (Intel) version 19.0.0.20181018
  Fortran compiler flags: -O3 -ip -fp-model precise
  C compiler            : /sw/installed/impi/2018.4.274-iccifort-2019.1.144-GCC-8.2.0-2.31.1/bin64/mpiicc (Intel) version 19.0.0.20181018
  C compiler flags      : -O3 -ip -fp-model precise
  Architecture          :
  Using MPI
  Using Scalapack
  Using C files
  Using LibXC
  Using SPGlib
  Using i-PI
  Using RLSY
  Linking against: /sw/installed/imkl/2019.1.144-iimpi-2019a/mkl/lib/intel64/libmkl_intel_lp64.so
                   /sw/installed/imkl/2019.1.144-iimpi-2019a/mkl/lib/intel64/libmkl_sequential.so
                   /sw/installed/imkl/2019.1.144-iimpi-2019a/mkl/lib/intel64/libmkl_core.so
                   /sw/installed/imkl/2019.1.144-iimpi-2019a/mkl/lib/intel64/libmkl_blacs_intelmpi_lp64.so
                   /sw/installed/imkl/2019.1.144-iimpi-2019a/mkl/lib/intel64/libmkl_scalapack_lp64.so

  Using       24 parallel tasks.
  Task        0 on host taurusi6472.taurus.hrsk.tu-dresden.de reporting.
  Task        1 on host taurusi6472.taurus.hrsk.tu-dresden.de reporting.
  Task        2 on host taurusi6472.taurus.hrsk.tu-dresden.de reporting.
  Task        3 on host taurusi6472.taurus.hrsk.tu-dresden.de reporting.
  Task        4 on host taurusi6472.taurus.hrsk.tu-dresden.de reporting.
  Task        5 on host taurusi6472.taurus.hrsk.tu-dresden.de reporting.
  Task        6 on host taurusi6472.taurus.hrsk.tu-dresden.de reporting.
  Task        7 on host taurusi6472.taurus.hrsk.tu-dresden.de reporting.
  Task        8 on host taurusi6472.taurus.hrsk.tu-dresden.de reporting.
  Task        9 on host taurusi6472.taurus.hrsk.tu-dresden.de reporting.
  Task       10 on host taurusi6472.taurus.hrsk.tu-dresden.de reporting.
  Task       11 on host taurusi6472.taurus.hrsk.tu-dresden.de reporting.
  Task       12 on host taurusi6472.taurus.hrsk.tu-dresden.de reporting.
  Task       13 on host taurusi6472.taurus.hrsk.tu-dresden.de reporting.
  Task       14 on host taurusi6472.taurus.hrsk.tu-dresden.de reporting.
  Task       15 on host taurusi6472.taurus.hrsk.tu-dresden.de reporting.
  Task       16 on host taurusi6472.taurus.hrsk.tu-dresden.de reporting.
  Task       17 on host taurusi6472.taurus.hrsk.tu-dresden.de reporting.
  Task       18 on host taurusi6472.taurus.hrsk.tu-dresden.de reporting.
  Task       19 on host taurusi6472.taurus.hrsk.tu-dresden.de reporting.
  Task       20 on host taurusi6472.taurus.hrsk.tu-dresden.de reporting.
  Task       21 on host taurusi6472.taurus.hrsk.tu-dresden.de reporting.
  Task       22 on host taurusi6472.taurus.hrsk.tu-dresden.de reporting.
  Task       23 on host taurusi6472.taurus.hrsk.tu-dresden.de reporting.

  Performing system and environment tests:
  | Environment variable OMP_NUM_THREADS correctly set to 1.
  | Maximum stacksize for task 0: unlimited
  | Maximum stacksize for task 1: unlimited
  | Maximum stacksize for task 2: unlimited
  | Maximum stacksize for task 3: unlimited
  | Maximum stacksize for task 4: unlimited
  | Maximum stacksize for task 5: unlimited
  | Maximum stacksize for task 6: unlimited
  | Maximum stacksize for task 7: unlimited
  | Maximum stacksize for task 8: unlimited
  | Maximum stacksize for task 9: unlimited
  | Maximum stacksize for task 10: unlimited
  | Maximum stacksize for task 11: unlimited
  | Maximum stacksize for task 12: unlimited
  | Maximum stacksize for task 13: unlimited
  | Maximum stacksize for task 14: unlimited
  | Maximum stacksize for task 15: unlimited
  | Maximum stacksize for task 16: unlimited
  | Maximum stacksize for task 17: unlimited
  | Maximum stacksize for task 18: unlimited
  | Maximum stacksize for task 19: unlimited
  | Maximum stacksize for task 20: unlimited
  | Maximum stacksize for task 21: unlimited
  | Maximum stacksize for task 22: unlimited
  | Maximum stacksize for task 23: unlimited
  | Current stacksize for task 0: unlimited
  | Current stacksize for task 1: unlimited
  | Current stacksize for task 2: unlimited
  | Current stacksize for task 3: unlimited
  | Current stacksize for task 4: unlimited
  | Current stacksize for task 5: unlimited
  | Current stacksize for task 6: unlimited
  | Current stacksize for task 7: unlimited
  | Current stacksize for task 8: unlimited
  | Current stacksize for task 9: unlimited
  | Current stacksize for task 10: unlimited
  | Current stacksize for task 11: unlimited
  | Current stacksize for task 12: unlimited
  | Current stacksize for task 13: unlimited
  | Current stacksize for task 14: unlimited
  | Current stacksize for task 15: unlimited
  | Current stacksize for task 16: unlimited
  | Current stacksize for task 17: unlimited
  | Current stacksize for task 18: unlimited
  | Current stacksize for task 19: unlimited
  | Current stacksize for task 20: unlimited
  | Current stacksize for task 21: unlimited
  | Current stacksize for task 22: unlimited
  | Current stacksize for task 23: unlimited
  | Checking for scalapack...
  | Testing pdtran()...
  | All pdtran() tests passed.

  Obtaining array dimensions for all initial allocations:
  
  -----------------------------------------------------------------------
  Parsing control.in (first pass over file, find array dimensions only).
  The contents of control.in will be repeated verbatim below
  unless switched off by setting 'verbatim_writeout .false.' .
  in the first line of control.in .
  -----------------------------------------------------------------------
  
  #===============================================================================
  # FHI-aims file: ./control.in
  # Created using the Atomic Simulation Environment (ASE)
  # Thu Apr  2 11:27:09 2020
  #===============================================================================
  xc                                 pbe
  # include_spin_orbit
  # vdw_correction_hirshfeld
  many_body_dispersion
  spin                               none
  k_grid 	 	 29 29 24
  relativistic                       atomic_zora scalar
  energy_tolerance 1e-2
  harmonic_length_scale  0.015
  ### SCF settings
  adjust_scf 	 always 	 3
  # frozen_core_scf 	 .true.
  # charge_mix_param  0.05
  # occupation_type 	 gaussian 	 0.01
  # sc_accuracy_eev   1E-3 	 	 # sum of eigenvalues convergence
  # sc_accuracy_etot  1E-6 	 	 # total energy convergence
  # sc_accuracy_rho   1E-3 	 	 # electron density convergence
  # elsi_restart 	 read_and_write 	 1000
  ### geometry optimisation section
  relax_geometry 	 bfgs 	 1E-2
  relax_unit_cell 	 full
  #===============================================================================
  
  ################################################################################
  #
  #  FHI-aims code project
  # Volker Blum, Fritz Haber Institute Berlin, 2009
  #
  #  Suggested "tight" defaults for Pd atom (to be pasted into control.in file)
  #
  ################################################################################
    species        Pd
  #     global species definitions
      nucleus             46
      mass                106.42
  #
      l_hartree           6
  #
      cut_pot             4.0  2.0  1.0
      basis_dep_cutoff    1e-4
  #
      radial_base         62 7.0
      radial_multiplier   2
      angular_grids specified
        division   0.3627   50
        division   0.7349  110
        division   1.0624  194
        division   1.2496  302
        division   1.6740  434
  #      division   2.0126  590
  #      division   2.0830  770
  #      division   2.7936 1202
  #       outer_grid  974
        outer_grid  434
  ################################################################################
  #
  #  Definition of "minimal" basis
  #
  ################################################################################
  #     valence basis states
      valence      5  s   1.
      valence      4  p   6.
      valence      4  d   9.
  #     ion occupancy
      ion_occ     5  s   0.
      ion_occ     4  p   6.
      ion_occ     4  d   8.
  ################################################################################
  #
  #  Suggested additional basis functions. For production calculations,
  #  uncomment them one after another (the most important basis functions are
  #  listed first).
  #
  #  Constructed for dimers: 2.0 A, 2.275 A, 2.75 A, 3.75 A
  #
  ################################################################################
  #  "First tier" - max. impr. -120.76  meV, min. impr. -5.71 meV
       ionic 5 p auto
       hydro 4 f 8
       hydro 5 g 10
       hydro 3 s 2.6
       hydro 3 d 2.5
  #  "Second tier" - max. impr. -5.00  meV, min. impr. -0.62 meV
  #     hydro 5 f 17.2
  #     hydro 6 h 14
  #     hydro 4 d 4
  #     hydro 5 f 7.6
  #     hydro 3 p 3.3
  #     hydro 4 s 9.4
  #  "Third tier" - max. impr. -0.54  meV, min. impr. -0.14 meV
  #     hydro 4 f 20
  #     hydro 5 g 12.8
  #     hydro 5 d 9.8
  #     hydro 6 h 15.2
  #     hydro 5 s 10
  #     hydro 6 p 9.8
  #  "Fourth tier" - max. impr. -0.15  meV, min. impr. -0.05 meV
  #     hydro 5 f 9.2
  #     hydro 2 s 5.6
  #     hydro 5 f 43.2
  #     hydro 5 d 13.2
  #     hydro 5 g 14
  #     hydro 4 p 4.7
  ################################################################################
  #
  #  FHI-aims code project
  # Volker Blum, Fritz Haber Institute Berlin, 2009
  #
  #  Suggested "tight" defaults for Se atom (to be pasted into control.in file)
  #
  ################################################################################
    species        Se
  #     global species definitions
      nucleus             34
      mass                78.96
  #
      l_hartree           6
  #
      cut_pot             4.0          2.0  1.0
      basis_dep_cutoff    1e-4
  #
      radial_base         55 7.0
      radial_multiplier   2
      angular_grids       specified
        division   0.0830  110
        division   0.1357  194
        division   0.7377  302
        division   0.8610  434
  #      division   0.9640  590
  #      division   1.0773  770
  #      division   2.5539  974
  #      outer_grid  974
        outer_grid  434
  ################################################################################
  #
  #  Definition of "minimal" basis
  #
  ################################################################################
  #     valence basis states
      valence      4  s   2.
      valence      4  p   4.
      valence      3  d  10.
  #     ion occupancy
      ion_occ      4  s   1.
      ion_occ      4  p   3.
      ion_occ      3  d  10.
  ################################################################################
  #
  #  Suggested additional basis functions. For production calculations,
  #  uncomment them one after another (the most important basis functions are
  #  listed first).
  #
  #  Constructed for dimers: 1.85 A, 2.15 A, 2.50 A, 3.00 A, 4.00 A
  #
  ################################################################################
  #  "First tier" - improvements: -336.21 meV to -36.85 meV
       hydro 3 d 4.3
       hydro 2 p 1.6
       hydro 4 f 7.2
       ionic 4 s auto
  #  "Second tier" - improvements: -14.39 meV to -1.49 meV
  #     hydro 5 g 10.4
  #     hydro 4 p 4.5
  #     hydro 4 d 6.2
  #     hydro 4 f 11.2
  #     hydro 1 s 0.65
  #     hydro 6 h 15.2
  #  "Third tier" - improvements: -0.46 meV and below
  #     hydro 5 g 14.4
  #     ionic 4 d auto
  #     hydro 4 f 22.4
  #     hydro 5 f 7.4
  #     hydro 5 p 8
  #     hydro 5 s 9.4
  #  "Fourth tier" - improvements: -0.12 meV and below
  #     hydro 5 d 11.6
  #     hydro 6 h 18
  #     hydro 4 p 4
  #     hydro 5 f 16
  #     hydro 4 s 3.9
  #
  #
  
  -----------------------------------------------------------------------
  Completed first pass over input file control.in .
  -----------------------------------------------------------------------
  
  
  -----------------------------------------------------------------------
  Parsing geometry.in (first pass over file, find array dimensions only).
  The contents of geometry.in will be repeated verbatim below
  unless switched off by setting 'verbatim_writeout .false.' .
  in the first line of geometry.in .
  -----------------------------------------------------------------------
  
  #
  # This is the geometry file that corresponds to the current relaxation step.
  # If you do not want this file to be written, set the "write_restart_geometry" flag to .false.
  #  aims_uuid : 71CA4E0C-A40B-45A7-A06B-5DEA4DBBFF4E
  #
  lattice_vector      5.85482426      0.00000000      0.00000000
  lattice_vector      0.00000000      5.95917604      0.00000000
  lattice_vector      0.00000000      0.00000000      7.43171898
  atom_frac       0.50242025      0.00207665      0.00191842 Pd
  atom_frac       0.00206435      0.00208566      0.50265814 Pd
  atom_frac       0.00214842      0.50244780      0.00196461 Pd
  atom_frac       0.50250367      0.50245646      0.50261172 Pd
  atom_frac       0.61429267      0.12007182      0.40432343 Se
  atom_frac       0.89103866      0.88488598      0.90453387 Se
  atom_frac       0.11390956      0.38454032      0.60074501 Se
  atom_frac       0.39062259      0.62041076      0.10024888 Se
  atom_frac       0.39066628      0.88490598      0.60074525 Se
  atom_frac       0.11394239      0.12007924      0.10026683 Se
  atom_frac       0.89100963      0.62040744      0.40432544 Se
  atom_frac       0.61427379      0.38452411      0.90455066 Se
  #
  # What follows is the current estimated Hessian matrix constructed by the BFGS algorithm.
  # This is NOT the true Hessian matrix of the system.
  # If you do not want this information here, switch it off using the "hessian_to_restart_geometry" keyword.
  #
  trust_radius             0.0122098284
  hessian_block                1       1           5.958700           0.060511          -2.198298           0.060511           6.43574
  hessian_block                1       2          -0.032076           0.485870           0.046642           0.320713           0.20855
  hessian_block                1       3          -0.056418           0.519002           0.036021          -0.057456          -0.13099
  hessian_block                1       4           0.511448           0.190786          -0.083978           0.121853          -0.50549
  hessian_block                1       5          -0.045922          -0.433647          -0.193945          -0.341139           0.35405
  hessian_block                1       6          -1.766668          -0.087334           0.595708           0.438006          -0.44632
  hessian_block                1       7          -0.368661           0.355211           0.275534           0.092847           0.17007
  hessian_block                1       8          -0.207442          -0.515307           0.332407          -0.344044          -1.88040
  hessian_block                1       9          -0.133100           0.018624           0.188958          -0.416491          -0.45840
  hessian_block                1      10          -2.303203           0.880951           1.062006           0.060302          -0.42535
  hessian_block                1      11           0.070877          -0.618861          -0.238337           0.225976           0.25243
  hessian_block                1      12          -0.061623          -0.855809           0.177279          -0.161076          -1.92684
  hessian_block                2       2           6.059887           0.320968           2.299830           0.320968           7.28312
  hessian_block                2       3           0.864718           0.842985           0.458505          -0.428621          -0.48587
  hessian_block                2       4           0.198843           0.642508           0.186924          -0.512607           0.69792
  hessian_block                2       5          -2.078073           0.041662          -0.975792           0.489409          -0.70803
  hessian_block                2       6          -0.531196          -0.085589           0.098840          -0.296587          -0.89454
  hessian_block                2       7          -0.002151          -0.713658          -0.395462          -0.439665          -1.56953
  hessian_block                2       8          -0.232043          -0.564806          -0.311584           0.085878          -0.42829
  hessian_block                2       9          -2.028862           0.378000          -0.958519           0.589446          -0.83897
  hessian_block                2      10           0.493498          -0.141711           0.008327           0.207592           0.94111
  hessian_block                2      11          -0.586284          -0.663014          -0.158650          -0.444360          -3.24867
  hessian_block                2      12          -0.560352          -0.378060          -0.229199          -0.057324           0.69023
  hessian_block                3       3           6.551254          -0.539760           2.398647          -0.539760           6.29224
  hessian_block                3       4           0.339729          -0.277334          -0.042020          -0.260673           0.10778
  hessian_block                3       5          -0.578472           0.139237          -0.298411          -0.224084           0.46016
  hessian_block                3       6          -0.745342           0.473633          -0.521060          -0.052233          -1.75113
  hessian_block                3       7           0.079913           0.130300           0.220925           0.206496          -0.12645
  hessian_block                3       8          -2.171104          -0.204414          -0.847561          -0.705330          -0.30234
  hessian_block                3       9          -0.283044           0.345499           0.131830          -0.034137          -0.18732
  hessian_block                3      10           0.471520           0.523633           0.177700           1.162413          -2.18028
  hessian_block                3      11          -0.425003           0.093825          -0.191822          -0.539162           0.24807
  hessian_block                3      12          -2.481840          -0.198542          -1.042220          -0.375518          -0.29682
  hessian_block                4       4           5.953104           0.199448          -1.946948           0.199448           7.06175
  hessian_block                4       5          -0.487226           0.615510           0.203916           0.089582          -2.30673
  hessian_block                4       6          -0.027705           0.477732           0.148884          -0.245402          -0.43655
  hessian_block                4       7          -2.015007          -0.947999           0.673663          -0.203382          -0.17470
  hessian_block                4       8          -0.283370          -0.212945          -0.182494           0.031646          -0.53937
  hessian_block                4       9          -0.273607           0.651043           0.149228           0.114510          -2.24808
  hessian_block                4      10          -0.421115          -0.429203          -0.176209          -0.135193           0.87318
  hessian_block                4      11          -1.808339           0.003008           0.890526          -0.848288          -1.41738
  hessian_block                4      12          -0.120844           0.294832          -0.056025           0.441122           0.53472
  hessian_block                5       5           5.346357          -0.391722          -1.207669          -0.391722           6.30829
  hessian_block                5       6           0.277941          -0.429100          -0.407784           0.212505          -0.20608
  hessian_block                5       7          -0.380143           1.135512           0.085345          -0.930238           0.06958
  hessian_block                5       8           0.135952           0.197668           0.424240           0.511920          -0.02316
  hessian_block                5       9          -1.355549          -0.388434           1.707886          -0.388309          -1.86540
  hessian_block                5      10          -0.150821           0.542470           0.470666           0.016823          -0.01743
  hessian_block                5      11           0.523729          -0.937465          -0.017834           1.046225           0.18947
  hessian_block                5      12           0.358139           0.257305          -0.461948          -0.439964          -0.60769
  hessian_block                6       6           5.703248           0.410068           1.848420           0.410068           5.76619
  hessian_block                6       7          -0.048405          -0.150122          -0.055816           0.470557           0.18796
  hessian_block                6       8          -0.120394           0.362828           0.145032           0.127566           0.24827
  hessian_block                6       9           0.083998           0.131151           0.016416           0.276055           0.78810
  hessian_block                6      10          -1.979530          -1.323766          -2.854014          -1.034420          -2.02373
  hessian_block                6      11           0.241417           0.342647          -0.128156          -0.738998           0.56674
  hessian_block                6      12           0.478547           0.170905           0.315841           0.139828          -0.15188
  hessian_block                7       7           5.449528           0.525511           1.115339           0.525511           6.09984
  hessian_block                7       8          -0.031162          -0.121253           0.029393           0.034756          -0.40092
  hessian_block                7       9           0.385936           0.603232          -0.240973          -0.651329          -0.42044
  hessian_block                7      10           0.261299          -0.579222          -0.174177           0.080566          -0.35172
  hessian_block                7      11          -1.877621           0.439772          -1.694590           0.673291          -2.35999
  hessian_block                7      12           0.112381          -0.064655           0.536954          -0.472041           0.52333
  hessian_block                8       8           4.749349           0.080771          -0.917186           0.080771           5.67719
  hessian_block                8       9           0.237140          -0.502658          -0.209351           0.151216           0.19538
  hessian_block                8      10           0.058328          -0.234577           0.260273          -0.591399          -0.52408
  hessian_block                8      11           0.173437          -0.165980          -0.202000           0.566602           1.20661
  hessian_block                8      12          -0.742780           1.080053           1.727089           0.851038          -1.58184
  hessian_block                9       9           5.032122          -0.529769          -0.798136          -0.529769           6.45649
  hessian_block                9      10          -0.035494           0.263564          -0.153326          -0.210511          -0.09493
  hessian_block                9      11          -0.193369           0.861714          -0.100869          -0.702928           0.54654
  hessian_block                9      12           0.129738          -0.236471           0.678405           0.206749          -0.22593
  hessian_block               10      10           5.852229           0.592021           1.709267           0.592021           6.86022
  hessian_block               10      11          -0.148136           0.045124           0.419956           0.358964          -1.38992
  hessian_block               10      12          -0.532665          -0.193317          -0.238596          -0.453125          -0.02003
  hessian_block               11      11           5.514291           0.272729           0.812460           0.272729           7.98723
  hessian_block               11      12           0.080908           0.129950          -0.461133           0.326501          -0.93410
  hessian_block               12      12           4.906300          -0.006193          -0.946448          -0.006193           5.64390
  hessian_block_lv             1       1          23.426133          -3.579439           4.885469          -3.579439          23.76568
  hessian_block_lv_atom        1       1           0.265301           0.398070           0.061980          -0.419041          -0.60066
  hessian_block_lv_atom        1       2          -0.532041          -0.889376          -0.220025           0.159464          -0.21943
  hessian_block_lv_atom        1       3          -0.591078          -1.000070          -0.248908           0.274994           0.50393
  hessian_block_lv_atom        1       4           0.103671           0.107565          -0.002343           0.795788           0.81199
  hessian_block_lv_atom        1       5           0.301595           0.460857           0.372433           0.136184           0.00995
  hessian_block_lv_atom        1       6           0.088062          -0.106766          -0.296606          -0.474574          -0.25296
  hessian_block_lv_atom        1       7          -0.567590          -0.820875           0.112628          -0.746899          -1.00752
  hessian_block_lv_atom        1       8          -0.043458           0.226339          -0.235989           0.080761           0.23058
  hessian_block_lv_atom        1       9           0.097527           0.192229          -0.209625          -0.618404          -0.43714
  hessian_block_lv_atom        1      10          -0.212141           0.038359           0.321213           0.528324           0.13722
  hessian_block_lv_atom        1      11           0.600369           0.957143          -0.051652           0.273296           0.84508
  hessian_block_lv_atom        1      12           0.489786           0.436526           0.396894           0.010111          -0.02105
  symmetry_n_params 39 3 36
  symmetry_params a1 b2 c3 x0 x1 x2 x3 x4 x5 x6 x7 x8 x9 x10 x11 x12 x13 x14 x15 x16 x17 x18 x19 x20 x21 x22 x23 x24 x25 x26 x27 x28 x
  symmetry_lv a1 , 0 , 0
  symmetry_lv 0 , b2 , 0
  symmetry_lv 0 , 0 , c3
  symmetry_frac x0 , x1 , x2
  symmetry_frac x3 , x4 , x5
  symmetry_frac x6 , x7 , x8
  symmetry_frac x9 , x10 , x11
  symmetry_frac x12 , x13 , x14
  symmetry_frac x15 , x16 , x17
  symmetry_frac x18 , x19 , x20
  symmetry_frac x21 , x22 , x23
  symmetry_frac x24 , x25 , x26
  symmetry_frac x27 , x28 , x29
  symmetry_frac x30 , x31 , x32
  symmetry_frac x33 , x34 , x35
  
  -----------------------------------------------------------------------
  Completed first pass over input file geometry.in .
  -----------------------------------------------------------------------
  

  Basic array size parameters:
  | Number of species                 :        2
  | Number of atoms                   :       12
  | Number of lattice vectors         :        3
  | Max. basis fn. angular momentum   :        4
  | Max. atomic/ionic basis occupied n:        5
  | Max. number of basis fn. types    :        3
  | Max. radial fns per species/type  :       10
  | Max. logarithmic grid size        :     1444
  | Max. radial integration grid size :      125
  | Max. angular integration grid size:      434
  | Max. angular grid division number :        8
  | Radial grid for Hartree potential :     1444
  | Number of spin channels           :        1

------------------------------------------------------------
          Reading file control.in.
------------------------------------------------------------
  XC: Using PBE gradient-corrected functionals.
  Using libMBD for calculating MBD and TS energies
  Spin treatment: No spin polarisation.
  Found k-point grid:        29        29        24
  Scalar relativistic treatment of kinetic energy: on-site free-atom approximation to ZORA.
  Max energy increase before discarding BFGS move:   0.100000E-01 eV
  Assuming qualitatively harmonic for steps shorter than   0.150000E-01 A.
  S.C.F. convergence parameters will be adjusted in iteration number     3 of each new s.c.f. cycle.
  Geometry relaxation: Modified BFGS - TRM (trust radius method) for lattice optimization.
  Convergence accuracy for geometry relaxation: Maximum force <   0.100000E-01 eV/A.
 
  Reading configuration options for species Pd                  .
  | Found nuclear charge :  46.0000
  | Found atomic mass :    106.420000000000      amu
  | Found l_max for Hartree potential  :   6
  | Found cutoff potl. onset [A], width [A], scale factor :    4.00000    2.00000    1.00000
  | Threshold for basis-dependent cutoff potential is   0.100000E-03
  | Found data for basic radial integration grid :    62 points, outermost radius =    7.000 A
  | Found multiplier for basic radial grid :   2
  | Found angular grid specification: user-specified.
  | Specified grid contains     6 separate shells.
  | Check grid settings after all constraints further below.
  | Found free-atom valence shell :  5 s   1.000
  | Found free-atom valence shell :  4 p   6.000
  | Found free-atom valence shell :  4 d   9.000
  | Found free-ion valence shell :  5 s   0.000
  | Found free-ion valence shell :  4 p   6.000
  | Found free-ion valence shell :  4 d   8.000
  | Found ionic basis function :  5 p , default cutoff radius.
  | Found hydrogenic basis function :  4 f   8.000
  | Found hydrogenic basis function :  5 g  10.000
  | Found hydrogenic basis function :  3 s   2.600
  | Found hydrogenic basis function :  3 d   2.500
  Species Pd                  : Missing cutoff potential type.
  Defaulting to exp(1/x)/(1-x)^2 type cutoff potential.
  Species Pd: No 'logarithmic' tag. Using default grid for free atom:
  | Default logarithmic grid data [bohr] : 0.1000E-03 0.1000E+03 0.1012E+01
  | Will include ionic basis functions of  2.0-fold positive Pd                   ion.
  Species Pd: On-site basis accuracy parameter (for Gram-Schmidt orthonormalisation) not specified.
  Using default value basis_acc =  0.1000000E-03.
  Species Pd                  : Using default innermost maximum threshold i_radial=  2 for radial functions.
  Species Pd                  : Default cutoff onset for free atom density etc. : 0.40000000E+01 AA.
  Species Pd                  : Basic radial grid will be enhanced according to radial_multiplier =   2, to contain   125 grid points.
 
  Reading configuration options for species Se                  .
  | Found nuclear charge :  34.0000
  | Found atomic mass :    78.9600000000000      amu
  | Found l_max for Hartree potential  :   6
  | Found cutoff potl. onset [A], width [A], scale factor :    4.00000    2.00000    1.00000
  | Threshold for basis-dependent cutoff potential is   0.100000E-03
  | Found data for basic radial integration grid :    55 points, outermost radius =    7.000 A
  | Found multiplier for basic radial grid :   2
  | Found angular grid specification: user-specified.
  | Specified grid contains     5 separate shells.
  | Check grid settings after all constraints further below.
  | Found free-atom valence shell :  4 s   2.000
  | Found free-atom valence shell :  4 p   4.000
  | Found free-atom valence shell :  3 d  10.000
  | Found free-ion valence shell :  4 s   1.000
  | Found free-ion valence shell :  4 p   3.000
  | Found free-ion valence shell :  3 d  10.000
  | Found hydrogenic basis function :  3 d   4.300
  | Found hydrogenic basis function :  2 p   1.600
  | Found hydrogenic basis function :  4 f   7.200
  | Found ionic basis function :  4 s , default cutoff radius.
  Species Se                  : Missing cutoff potential type.
  Defaulting to exp(1/x)/(1-x)^2 type cutoff potential.
  Species Se: No 'logarithmic' tag. Using default grid for free atom:
  | Default logarithmic grid data [bohr] : 0.1000E-03 0.1000E+03 0.1012E+01
  | Will include ionic basis functions of  2.0-fold positive Se                   ion.
  Species Se: On-site basis accuracy parameter (for Gram-Schmidt orthonormalisation) not specified.
  Using default value basis_acc =  0.1000000E-03.
  Species Se                  : Using default innermost maximum threshold i_radial=  2 for radial functions.
  Species Se                  : Default cutoff onset for free atom density etc. : 0.40000000E+01 AA.
  Species Se                  : Basic radial grid will be enhanced according to radial_multiplier =   2, to contain   111 grid points.
 
  Finished reading input file 'control.in'. Consistency checks are next.
 
  MPI_IN_PLACE appears to work with this MPI implementation.
  | Keeping use_mpi_in_place .true. (see manual).
  Target number of points in a grid batch is not set. Defaulting to  100
  Method for grid partitioning is not set. Defaulting to parallel hash+maxmin partitioning.
  Batch size limit is not set. Defaulting to    200
  By default, will store active basis functions for each batch.
  If in need of memory, prune_basis_once .false. can be used to disable this option.
  communication_type for Hartree potential was not specified.
  Defaulting to calc_hartree .
  Defaulting to Pulay charge density mixer.
  Pulay mixer: Number of relevant iterations not set.
  Defaulting to    8 iterations.
  Pulay mixer: Number of initial linear mixing iterations not set.
  Defaulting to    0 iterations.
  Work space size for distributed Hartree potential not set.
  Defaulting to   0.200000E+03 MB.
  Mixing parameter for charge density mixing has not been set.
  Using default: charge_mix_param =     0.0500.
  The mixing parameter will be adjusted in iteration number     3 of each s.c.f. cycle (i.e., each geometry step).
  Algorithm-dependent basis array size parameters:
  | n_max_pulay                         :        8
  Maximum number of self-consistency iterations not provided.
  Presetting  1000 iterations.
  Presetting      1001 iterations before the initial mixing cycle
  is restarted anyway using the sc_init_iter criterion / keyword.
  Presetting a factor      1.000 between actual scf density residual
  and density convergence criterion sc_accuracy_rho below which sc_init_iter
  takes no effect.
 * No s.c.f. convergence criteria (sc_accuracy_*) were provided in control.in.
 * The run will proceed with a reasonable default guess, but please check whether.
 * the s.c.f. cycles seem to take too much or too little time.
  No maximum number of relaxation steps, defaulting to     1000
  Using explicit Hessian from geometry.in.
  Maximum energy tolerance by which TRM/BFGS trajectory may increase over multiple steps:   0.300000E-02
  No trust radius initializer. Defaulting to   0.200000E+00 A.
  Unit cell relaxation: Unit cell will be relaxed fully.
  Unit cell relaxation: Analytical stress will be used.
  Analytical stress will be computed.
  Analytical stress calculation: Only the upper triangle is calculated.
                                 Final output is symmetrized.
  Analytical stress calculation: scf convergence accuracy of stress not set.
                                 Analytical stress self-consistency will not be checked explicitly.
                                 Be sure to set other criteria like sc_accuracy_rho tight enough.
 * Notice: The s.c.f. convergence criterion sc_accuracy_rho was not provided.
 * We used to stop in this case, and ask the user to provide reasonable
 * scf convergence criteria. However, this led some users to employ criteria
 * that led to extremely long run times, e.g., for simple relaxation.
 * We now preset a default value for sc_accuracy_rho if it is not set.
 * You may still wish to check if this setting is too tight or too loose for your needs.
 * Based on n_atoms, FHI-aims chose sc_accuracy_rho =  0.141421E-05 .
  Force calculation: scf convergence accuracy of forces not set.
  Defaulting to 'sc_accuracy_forces not_checked'.
  Handling of forces: Unphysical translation and rotation will be removed from forces.
  No accuracy limit for integral partition fn. given. Defaulting to  0.1000E-14.
  No threshold value for u(r) in integrations given. Defaulting to  0.1000E-05.
  No occupation type (smearing scheme) given. Defaulting to Gaussian broadening, width =  0.1000E-01 eV.
  The width will be adjusted in iteration number     3 of each s.c.f. cycle (i.e., each geometry step).
  S.C.F. convergence parameters will be adjusted in iteration number     3 of the first full s.c.f. cycle only.
  No accuracy for occupation numbers given. Defaulting to  0.1000E-12.
  No threshold value for occupation numbers given. Defaulting to  0.0000E+00.
  No accuracy for fermi level given. Defaulting to  0.1000E-19.
  Maximum # of iterations to find E_F not set. Defaulting to  200.
  Preferred method for the eigenvalue solver ('KS_method') not specified in 'control.in'.
  Defaulting to serial version, LAPACK (via ELSI), since more k-points than CPUs available.
  Will not use alltoall communication since running on < 1024 CPUs.
  Threshold for basis singularities not set.
  Default threshold for basis singularities:  0.1000E-04
  partition_type (choice of integration weights) for integrals was not specified.
  | Using a version of the partition function of Stratmann and coworkers ('stratmann_sparse').
  | At each grid point, the set of atoms used to build the partition table is smoothly restricted to
  | only those atoms whose free-atom density would be non-zero at that grid point.
  Partitioning for Hartree potential was not defined. Using partition_type for integrals.
  | Adjusted default value of keyword multip_moments_threshold to:       0.10000000E-11
  | This value may affect high angular momentum components of the Hartree potential in periodic systems.
  Angular momentum expansion for Kerker preconditioner not set explicitly.
  | Using default value of   0
  No explicit requirement for turning off preconditioner.
  | By default, it will be turned off when the charge convergence reaches
  | sc_accuracy_rho  =   0.141421E-05
  No special mixing parameter while Kerker preconditioner is on.
  Using default: charge_mix_param =     0.0500.
  No q(lm)/r^(l+1) cutoff set for long-range Hartree potential.
  | Using default value of  0.100000E-09 .
  | Verify using the multipole_threshold keyword.
  Defaulting to new monopole extrapolation.
  Density update method: automatic selection selected.
  Using density matrix based charge density update.
  Using density matrix based charge density update.
  Using packed matrix style: index .
  Geometry relaxation: A file "geometry.in.next_step" is written out by default after each step.
  | This file contains the geometry of the current relaxation step as well as
  | the current Hessian matrix needed to restart the relaxation algorithm.
  | If you do not want part or all of this information, use the keywords
  | "write_restart_geometry" or "hessian_to_restart_geometry" to switch the output off.
  Defaulting to use time-reversal symmetry for k-point grid.
  Charge integration errors on the 3D integration grid will be compensated
  by explicit normalization and distribution of residual charges.
  Use the "compensate_multipole_errors" flag to change this behaviour.
------------------------------------------------------------


------------------------------------------------------------
          Reading geometry description geometry.in.
------------------------------------------------------------
  Input structure read successfully.
  The structure contains       12 atoms,  and a total of        456.000 electrons.

  Input geometry:
  | Unit cell:
  |        5.85482426        0.00000000        0.00000000
  |        0.00000000        5.95917604        0.00000000
  |        0.00000000        0.00000000        7.43171898
  | Atomic structure:
  |       Atom                x [A]            y [A]            z [A]
  |    1: Species Pd            2.94158227        0.01237512        0.01425716
  |    2: Species Pd            0.01208641        0.01242882        3.73561404
  |    3: Species Pd            0.01257862        2.99417489        0.01460043
  |    4: Species Pd            2.94207068        2.99422650        3.73526906
  |    5: Species Se            3.59657563        0.71552911        3.00481811
  |    6: Species Se            5.21687476        5.27319133        6.72224153
  |    7: Species Se            0.66692046        2.29154346        4.46456809
  |    8: Species Se            2.28702662        3.69713694        0.74502150
  |    9: Species Se            2.28728241        5.27331051        4.46456988
  |   10: Species Se            0.66711267        0.71557333        0.74515490
  |   11: Species Se            5.21670480        3.69711715        3.00483305
  |   12: Species Se            3.59646509        2.29144686        6.72236631

  Lattice parameters for 3D lattice (in Angstroms) :     5.854824    5.959176    7.431719
  Angle(s) between unit vectors (in degrees)       :    90.000000   90.000000   90.000000

  | The smallest distance between any two atoms is         2.40489241 AA.
  | The first atom of this pair is atom number                      6 .
  | The second atom of this pair is atom number                    10 .
  | Wigner-Seitz cell of the first atom image           0     0     0 .
  | (The Wigner-Seitz cell of the second atom is 0 0 0  by definition.)

  Symmetry information by spglib:
  | Precision set to  0.1E-04
  | Number of Operations  : 1
  | Space group           : 1
  | International         : P1
  | Schoenflies           : C1^1

  Quantities derived from the lattice vectors:
  | Reciprocal lattice vector 1:  1.073164  0.000000  0.000000
  | Reciprocal lattice vector 2:  0.000000  1.054371  0.000000
  | Reciprocal lattice vector 3:  0.000000  0.000000  0.845455
  | Unit cell volume                               :   0.259292E+03  A^3

  Range separation radius for Ewald summation (hartree_convergence_parameter):      3.99886331 bohr.

  Fractional coordinates:
                         L1                L2                L3
       atom_frac         0.50242025        0.00207665        0.00191842  Pd
       atom_frac         0.00206435        0.00208566        0.50265814  Pd
       atom_frac         0.00214842        0.50244780        0.00196461  Pd
       atom_frac         0.50250367        0.50245646        0.50261172  Pd
       atom_frac         0.61429267        0.12007182        0.40432343  Se
       atom_frac         0.89103866        0.88488598        0.90453387  Se
       atom_frac         0.11390956        0.38454032        0.60074501  Se
       atom_frac         0.39062259        0.62041076        0.10024888  Se
       atom_frac         0.39066628        0.88490598        0.60074525  Se
       atom_frac         0.11394239        0.12007924        0.10026683  Se
       atom_frac         0.89100963        0.62040744        0.40432544  Se
       atom_frac         0.61427379        0.38452411        0.90455066  Se

  Number of empty states per atom not set in control.in - providing a guess from actual geometry.
  | Total number of empty states used during s.c.f. cycle:       66
  If you use a very high smearing, use empty_states (per atom!) in control.in to increase this value.

  Structure-dependent array size parameters: 
  | Maximum number of distinct radial functions  :       27
  | Maximum number of basis functions            :      468
  | Number of Kohn-Sham states (occupied + empty):      294
------------------------------------------------------------

------------------------------------------------------------
          Preparing all fixed parts of the calculation.
------------------------------------------------------------
  Determining machine precision:
    2.225073858507201E-308
  Setting up grids for atomic and cluster calculations.

  Creating wave function, potential, and density for free atoms.

  Species: Pd

  List of occupied orbitals and eigenvalues:
    n    l              occ      energy [Ha]    energy [eV]
    1    0           2.0000      -913.269104    -24851.3168
    2    0           2.0000      -130.434372     -3549.2998
    3    0           2.0000       -23.521804      -640.0609
    4    0           2.0000        -3.256918       -88.6253
    5    0           1.0000        -0.157260        -4.2793
    2    1           6.0000      -116.910756     -3181.3035
    3    1           6.0000       -19.103344      -519.8284
    4    1           6.0000        -1.998052       -54.3697
    3    2          10.0000       -12.098182      -329.2083
    4    2           9.0000        -0.243389        -6.6230


  Species: Se

  List of occupied orbitals and eigenvalues:
    n    l              occ      energy [Ha]    energy [eV]
    1    0           2.0000      -466.337810    -12689.6975
    2    0           2.0000       -59.202598     -1610.9847
    3    0           2.0000        -7.847116      -213.5309
    4    0           2.0000        -0.634372       -17.2621
    2    1           6.0000       -52.061107     -1416.6548
    3    1           6.0000        -5.620941      -152.9536
    4    1           4.0000        -0.238469        -6.4891
    3    2          10.0000        -1.951949       -53.1152

  Creating fixed part of basis set: Ionic, confined, hydrogenic.
 
  Pd                   ion:

  List of free ionic orbitals and eigenvalues:
    n    l      energy [Ha]    energy [eV]
    1    0      -914.099884    -24873.9234
    2    0      -131.248265     -3571.4470
    3    0       -24.332473      -662.1203
    4    0        -4.059276      -110.4585
    2    1      -117.724296     -3203.4411
    3    1       -19.913908      -541.8850
    4    1        -2.795328       -76.0648
    3    2       -12.908733      -351.2645
    4    2        -1.004248       -27.3270


  List of ionic basis orbitals and eigenvalues:
    n    l      energy [Ha]    energy [eV]    outer radius [A]
    5    1        -0.516938       -14.0666       5.427025

 
  Pd                   hydrogenic:
 
  List of hydrogenic basis orbitals: 
    n    l      effective z      eigenvalue [eV]  inner max. [A]     outer max. [A]     outer radius [A]   
    4    3         8.000000       -54.4226           1.054686           1.054686           4.629581
    5    4        10.000000       -54.4226           1.330451           1.330451           5.043202
    3    0         2.600000        -9.8948           0.150992           2.606197           5.493778
    3    2         2.500000        -9.3396           1.873517           1.873517           5.493778
 
 
  Se                   ion:

  List of free ionic orbitals and eigenvalues:
    n    l      energy [Ha]    energy [eV]
    1    0      -467.261007    -12714.8189
    2    0       -60.104893     -1635.5374
    3    0        -8.743714      -237.9286
    4    0        -1.414053       -38.4783
    2    1       -52.964156     -1441.2280
    3    1        -6.516916      -177.3343
    4    1        -0.961869       -26.1738
    3    2        -2.844511       -77.4031


  List of ionic basis orbitals and eigenvalues:
    n    l      energy [Ha]    energy [eV]    outer radius [A]
    4    0        -1.414046       -38.4782       4.083166

 
  Se                   hydrogenic:
 
  List of hydrogenic basis orbitals: 
    n    l      effective z      eigenvalue [eV]  inner max. [A]     outer max. [A]     outer radius [A]   
    3    2         4.300000       -27.9518           1.103845           1.103845           5.278265
    2    1         1.600000        -8.6828           1.326010           1.326010           5.475439
    4    3         7.200000       -44.0822           1.173422           1.173422           4.965294
 

  Adding cutoff potential to free-atom effective potential.
  Creating atomic-like basis functions for current effective potential.

  Species Pd                  :

  List of atomic basis orbitals and eigenvalues:
    n    l      energy [Ha]    energy [eV]    outer radius [A]
    1    0      -913.269104    -24851.3168       0.223280
    2    0      -130.434372     -3549.2998       0.615909
    3    0       -23.521804      -640.0609       1.414312
    4    0        -3.256918       -88.6253       3.581357
    5    0        -0.157260        -4.2793       5.427025
    2    1      -116.910756     -3181.3035       0.631154
    3    1       -19.103344      -519.8284       1.540671
    4    1        -1.998052       -54.3697       4.408641
    3    2       -12.098182      -329.2083       1.806051
    4    2        -0.243389        -6.6230       5.361084


  Species Se                  :

  List of atomic basis orbitals and eigenvalues:
    n    l      energy [Ha]    energy [eV]    outer radius [A]
    1    0      -466.337810    -12689.6975       0.309561
    2    0       -59.202598     -1610.9847       0.885812
    3    0        -7.847116      -213.5309       2.355489
    4    0        -0.634372       -17.2621       5.214131
    2    1       -52.061107     -1416.6548       0.907737
    3    1        -5.620941      -152.9536       2.694529
    4    1        -0.238469        -6.4891       5.408909
    3    2        -1.951949       -53.1152       4.083166

  Assembling full basis from fixed parts.
  | Species Pd :   atomic orbital   1 s accepted.
  | Species Pd :   atomic orbital   2 s accepted.
  | Species Pd :   atomic orbital   3 s accepted.
  | Species Pd :   atomic orbital   4 s accepted.
  | Species Pd :   atomic orbital   5 s accepted.
  | Species Pd :    hydro orbital   3 s accepted.
  | Species Pd :   atomic orbital   2 p accepted.
  | Species Pd :   atomic orbital   3 p accepted.
  | Species Pd :   atomic orbital   4 p accepted.
  | Species Pd :    ionic orbital   5 p accepted.
  | Species Pd :   atomic orbital   3 d accepted.
  | Species Pd :   atomic orbital   4 d accepted.
  | Species Pd :    hydro orbital   3 d accepted.
  | Species Pd :    hydro orbital   4 f accepted.
  | Species Pd :    hydro orbital   5 g accepted.
  | Species Se :   atomic orbital   1 s accepted.
  | Species Se :   atomic orbital   2 s accepted.
  | Species Se :   atomic orbital   3 s accepted.
  | Species Se :    ionic orbital   4 s accepted.
  | Species Se :   atomic orbital   4 s accepted.
  | Species Se :   atomic orbital   2 p accepted.
  | Species Se :   atomic orbital   3 p accepted.
  | Species Se :   atomic orbital   4 p accepted.
  | Species Se :    hydro orbital   2 p accepted.
  | Species Se :   atomic orbital   3 d accepted.
  | Species Se :    hydro orbital   3 d accepted.
  | Species Se :    hydro orbital   4 f accepted.
 
  Basis size parameters after reduction:
  | Total number of radial functions:       27
  | Total number of basis functions :      468
 
  Per-task memory consumption for arrays in subroutine allocate_ext:
  |           9.993344MB.
  Testing on-site integration grid accuracy.
  |  Species  Function  <phi|h_atom|phi> (log., in eV)  <phi|h_atom|phi> (rad., in eV)
           1        1             -24851.3167505682             -24851.3148165635
           1        2              -3549.2998457785              -3549.2998098031
           1        3               -640.0608571327               -640.0608534886
           1        4                -88.6252603131                -88.6252593316
           1        5                 -4.2849374515                 -4.2849400622
           1        6                  4.9432123540                  4.9432188418
           1        7              -3181.3035399559              -3181.3035364574
           1        8               -519.8284281886               -519.8284264063
           1        9                -54.3697495804                -54.3697489261
           1       10                  0.8628369484                  0.8628370487
           1       11               -329.2082917394               -329.2082912864
           1       12                 -6.6230267036                 -6.6230265076
           1       13                  5.4924295291                  5.4924115607
           1       14                 25.0740861942                 25.0740861175
           1       15                 38.8271273823                 38.8271278029
           2       16             -12689.6974611609             -12689.6967666984
           2       17              -1610.9846578580              -1610.9846472470
           2       18               -213.5308789869               -213.5308777267
           2       19                -17.0464428502                -17.0464426496
           2       20                  6.7356859379                  6.7356842047
           2       21              -1416.6548010133              -1416.6548002108
           2       22               -152.9535734377               -152.9535727493
           2       23                 -6.4896265677                 -6.4896303794
           2       24                  5.2703037283                  5.2701679583
           2       25                -53.1152220964                -53.1152219035
           2       26                  7.6186674138                  7.6186665630
           2       27                 23.1072799052                 23.1072803137

  Preparing densities etc. for the partition functions (integrals / Hartree potential).

  Preparations completed.
  max(cpu_time)          :      0.550 s.
  Wall clock time (cpu1) :      0.583 s.
------------------------------------------------------------

------------------------------------------------------------
          Begin self-consistency loop: Initialization.

          Date     :  20200420, Time     :  205306.476
------------------------------------------------------------

  Initializing index lists of integration centers etc. from given atomic structure:
  Mapping all atomic coordinates to central unit cell.

  Initializing the k-points
  Using symmetry for reducing the k-points
  | k-points reduced from:    20184 to    10093
  | Number of k-points                             :     10093
  The eigenvectors in the calculations are COMPLEX.
  | K-points in task   0:       420
  | K-points in task   1:       421
  | K-points in task   2:       421
  | K-points in task   3:       421
  | K-points in task   4:       421
  | K-points in task   5:       421
  | K-points in task   6:       421
  | K-points in task   7:       421
  | K-points in task   8:       421
  | K-points in task   9:       421
  | K-points in task  10:       421
  | K-points in task  11:       421
  | K-points in task  12:       421
  | K-points in task  13:       421
  | K-points in task  14:       420
  | K-points in task  15:       420
  | K-points in task  16:       420
  | K-points in task  17:       420
  | K-points in task  18:       420
  | K-points in task  19:       420
  | K-points in task  20:       420
  | K-points in task  21:       420
  | K-points in task  22:       420
  | K-points in task  23:       420
  | Number of basis functions in the Hamiltonian integrals :      5560
  | Number of basis functions in a single unit cell        :       468
  | Number of centers in hartree potential         :      1325
  | Number of centers in hartree multipole         :       769
  | Number of centers in electron density summation:       596
  | Number of centers in basis integrals           :       640
  | Number of centers in integrals                 :       236
  | Number of centers in hamiltonian               :       596
  | Consuming      13562 KiB for k_phase.
  | Number of super-cells (origin) [n_cells]                     :         567
  | Number of super-cells (after PM_index) [n_cells]             :          86
  | Number of super-cells in hamiltonian [n_cells_in_hamiltonian]:          86
  | Size of matrix packed + index [n_hamiltonian_matrix_size] :     1293650

  Initializing relaxation algorithms.
  | Estimated reciprocal-space cutoff momentum G_max:         2.42892011 bohr^-1 .
  | Reciprocal lattice points for long-range Hartree potential:     418
  Partitioning the integration grid into batches with parallel hashing+maxmin method.
  | Number of batches:     4180
  | Maximal batch size:     110
  | Minimal batch size:      49
  | Average batch size:      91.899
  | Standard deviation of batch sizes:      11.362

  Integration load balanced across    24 MPI tasks.
  Work distribution over tasks is as follows:
  Task     0 has      16000 integration points.
  Task     1 has      16025 integration points.
  Task     2 has      16019 integration points.
  Task     3 has      15993 integration points.
  Task     4 has      16036 integration points.
  Task     5 has      15962 integration points.
  Task     6 has      15962 integration points.
  Task     7 has      16022 integration points.
  Task     8 has      16033 integration points.
  Task     9 has      16024 integration points.
  Task    10 has      15994 integration points.
  Task    11 has      16022 integration points.
  Task    12 has      16020 integration points.
  Task    13 has      15975 integration points.
  Task    14 has      16029 integration points.
  Task    15 has      15975 integration points.
  Task    16 has      16029 integration points.
  Task    17 has      16000 integration points.
  Task    18 has      15994 integration points.
  Task    19 has      16016 integration points.
  Task    20 has      16014 integration points.
  Task    21 has      15962 integration points.
  Task    22 has      15998 integration points.
  Task    23 has      16032 integration points.
  Initializing partition tables, free-atom densities, potentials, etc. across the integration grid (initialize_grid_storage).
  | initialize_grid_storage: Actual outermost partition radius vs. multipole_radius_free
  | (-- VB: in principle, multipole_radius_free should be larger, hence this output)
  | Species        1: Confinement radius =              6.000000000000000 AA, multipole_radius_free =              6.058219618167466 AA.
  | Species        1: outer_partition_radius set to              6.058219618167466 AA .
  | Species        2: Confinement radius =              6.000000000000000 AA, multipole_radius_free =              6.037996416842453 AA.
  | Species        2: outer_partition_radius set to              6.037996416842453 AA .
  | The sparse table of interatomic distances needs       2897.83 kbyte instead of      3276.80 kbyte of memory.
  | Net number of integration points:   384136
  | of which are non-zero points    :   322112
  | Numerical average free-atom electrostatic potential    :    -17.07895210 eV
  Renormalizing the initial density to the exact electron count on the 3D integration grid.
  | Initial density: Formal number of electrons (from input files) :     456.0000000000
  | Integrated number of electrons on 3D grid     :     456.0000570017
  | Charge integration error                      :       0.0000570017
  | Normalization factor for density and gradient :       0.9999998750
  Renormalizing the free-atom superposition density to the exact electron count on the 3D integration grid.
  | Formal number of electrons (from input files) :     456.0000000000
  | Integrated number of electrons on 3D grid     :     456.0000570017
  | Charge integration error                      :       0.0000570017
  | Normalization factor for density and gradient :       0.9999998750
  Obtaining max. number of non-zero basis functions in each batch (get_n_compute_maxes).
  | Maximal number of non-zero basis functions:     1002 in task     0
  | Maximal number of non-zero basis functions:     1040 in task     1
  | Maximal number of non-zero basis functions:     1029 in task     2
  | Maximal number of non-zero basis functions:     1030 in task     3
  | Maximal number of non-zero basis functions:     1034 in task     4
  | Maximal number of non-zero basis functions:     1014 in task     5
  | Maximal number of non-zero basis functions:     1026 in task     6
  | Maximal number of non-zero basis functions:     1010 in task     7
  | Maximal number of non-zero basis functions:     1029 in task     8
  | Maximal number of non-zero basis functions:     1023 in task     9
  | Maximal number of non-zero basis functions:     1030 in task    10
  | Maximal number of non-zero basis functions:     1026 in task    11
  | Maximal number of non-zero basis functions:     1034 in task    12
  | Maximal number of non-zero basis functions:     1034 in task    13
  | Maximal number of non-zero basis functions:     1024 in task    14
  | Maximal number of non-zero basis functions:     1024 in task    15
  | Maximal number of non-zero basis functions:     1028 in task    16
  | Maximal number of non-zero basis functions:     1042 in task    17
  | Maximal number of non-zero basis functions:     1018 in task    18
  | Maximal number of non-zero basis functions:     1009 in task    19
  | Maximal number of non-zero basis functions:     1025 in task    20
  | Maximal number of non-zero basis functions:     1020 in task    21
  | Maximal number of non-zero basis functions:     1020 in task    22
  | Maximal number of non-zero basis functions:     1015 in task    23
  Allocating      881.785 MB for KS_eigenvector_complex
  Integrating Hamiltonian matrix: batch-based integration.
  Time summed over all CPUs for integration: real work       63.800 s, elapsed       64.479 s
  Integrating overlap matrix.
  Time summed over all CPUs for integration: real work       46.129 s, elapsed       46.724 s
  Decreasing sparse matrix size:
  | Tolerance:  0.1000E-12
  Hamiltonian matrix
  | Array has  1119487 nonzero elements out of  1293650 elements
  | Sparsity factor is 0.135
  Overlap matrix
  | Array has  1033084 nonzero elements out of  1293650 elements
  | Sparsity factor is 0.201
  New size of hamiltonian matrix:     1119558

  Updating Kohn-Sham eigenvalues and eigenvectors using ELSI and the (modified) LAPACK eigensolver.
  Singularity check in k-point 24, task 0 (analysis for other k-points/tasks may follow below):
  Overlap matrix is not singular
  | Lowest and highest eigenvalues :  0.5975E-03,  0.7302E+01
  Finished singularity check of overlap matrix
  | Time :     0.074 s
  Starting LAPACK eigensolver
  Finished Cholesky decomposition
  | Time :     0.019 s
  Finished transformation to standard eigenproblem
  | Time :     0.021 s
  Finished solving standard eigenproblem
  | Time :     0.071 s
  Finished back-transformation of eigenvectors
  | Time :     0.009 s

  Obtaining occupation numbers and chemical potential using ELSI.
  | Chemical potential (Fermi level):    -4.63626876 eV
  Writing Kohn-Sham eigenvalues.
  K-point:       1 at    0.000000    0.000000    0.000000 (in units of recip. lattice)

  State    Occupation    Eigenvalue [Ha]    Eigenvalue [eV]
      1       2.00000        -913.279499       -24851.59962
      2       2.00000        -913.279489       -24851.59932
      3       2.00000        -913.279488       -24851.59930
      4       2.00000        -913.279412       -24851.59725
      5       2.00000        -466.350323       -12690.03796
      6       2.00000        -466.350286       -12690.03696
      7       2.00000        -466.350249       -12690.03593
      8       2.00000        -466.350245       -12690.03582
      9       2.00000        -466.350244       -12690.03581
     10       2.00000        -466.350231       -12690.03545
     11       2.00000        -466.350218       -12690.03510
     12       2.00000        -466.350199       -12690.03458
     13       2.00000        -130.445084        -3549.59133
     14       2.00000        -130.445073        -3549.59103
     15       2.00000        -130.445072        -3549.59101
     16       2.00000        -130.444996        -3549.58894
     17       2.00000        -116.921492        -3181.59567
     18       2.00000        -116.921483        -3181.59543
     19       2.00000        -116.921481        -3181.59537
     20       2.00000        -116.921480        -3181.59535
     21       2.00000        -116.921472        -3181.59513
     22       2.00000        -116.921471        -3181.59511
     23       2.00000        -116.921429        -3181.59397
     24       2.00000        -116.921418        -3181.59367
     25       2.00000        -116.921418        -3181.59365
     26       2.00000        -116.921404        -3181.59328
     27       2.00000        -116.921395        -3181.59304
     28       2.00000        -116.921342        -3181.59159
     29       2.00000         -59.215538        -1611.33676
     30       2.00000         -59.215500        -1611.33573
     31       2.00000         -59.215462        -1611.33470
     32       2.00000         -59.215458        -1611.33459
     33       2.00000         -59.215457        -1611.33457
     34       2.00000         -59.215444        -1611.33421
     35       2.00000         -59.215431        -1611.33385
     36       2.00000         -59.215411        -1611.33332
     37       2.00000         -52.074053        -1417.00708
     38       2.00000         -52.074029        -1417.00643
     39       2.00000         -52.074016        -1417.00608
     40       2.00000         -52.073991        -1417.00539
     41       2.00000         -52.073980        -1417.00510
     42       2.00000         -52.073978        -1417.00504
     43       2.00000         -52.073973        -1417.00492
     44       2.00000         -52.073973        -1417.00491
     45       2.00000         -52.073960        -1417.00455
     46       2.00000         -52.073952        -1417.00434
     47       2.00000         -52.073950        -1417.00427
     48       2.00000         -52.073948        -1417.00423
     49       2.00000         -52.073947        -1417.00419
     50       2.00000         -52.073943        -1417.00408
     51       2.00000         -52.073935        -1417.00387
     52       2.00000         -52.073927        -1417.00366
     53       2.00000         -52.073922        -1417.00352
     54       2.00000         -52.073905        -1417.00306
     55       2.00000         -52.073903        -1417.00298
     56       2.00000         -52.073901        -1417.00294
     57       2.00000         -52.073901        -1417.00293
     58       2.00000         -52.073888        -1417.00258
     59       2.00000         -52.073875        -1417.00223
     60       2.00000         -52.073855        -1417.00170
     61       2.00000         -23.533278         -640.37307
     62       2.00000         -23.533266         -640.37275
     63       2.00000         -23.533265         -640.37273
     64       2.00000         -23.533184         -640.37052
     65       2.00000         -19.115072         -520.14757
     66       2.00000         -19.115060         -520.14723
     67       2.00000         -19.115058         -520.14721
     68       2.00000         -19.114984         -520.14519
     69       2.00000         -19.114976         -520.14496
     70       2.00000         -19.114974         -520.14490
     71       2.00000         -19.114971         -520.14482
     72       2.00000         -19.114889         -520.14261
     73       2.00000         -19.114451         -520.13069
     74       2.00000         -19.114441         -520.13040
     75       2.00000         -19.114440         -520.13038
     76       2.00000         -19.114361         -520.12823
     77       2.00000         -12.109879         -329.52657
     78       2.00000         -12.109867         -329.52624
     79       2.00000         -12.109866         -329.52621
     80       2.00000         -12.109843         -329.52560
     81       2.00000         -12.109831         -329.52527
     82       2.00000         -12.109830         -329.52525
     83       2.00000         -12.109783         -329.52396
     84       2.00000         -12.109748         -329.52301
     85       2.00000         -12.109500         -329.51626
     86       2.00000         -12.109488         -329.51594
     87       2.00000         -12.109488         -329.51593
     88       2.00000         -12.109444         -329.51473
     89       2.00000         -12.109433         -329.51445
     90       2.00000         -12.109431         -329.51439
     91       2.00000         -12.109408         -329.51375
     92       2.00000         -12.109361         -329.51248
     93       2.00000         -12.109352         -329.51223
     94       2.00000         -12.109350         -329.51219
     95       2.00000         -12.109349         -329.51216
     96       2.00000         -12.109270         -329.51001
     97       2.00000          -7.861849         -213.93180
     98       2.00000          -7.861804         -213.93058
     99       2.00000          -7.861761         -213.92941
    100       2.00000          -7.861760         -213.92937
    101       2.00000          -7.861756         -213.92928
    102       2.00000          -7.861742         -213.92888
    103       2.00000          -7.861727         -213.92847
    104       2.00000          -7.861706         -213.92789
    105       2.00000          -5.636254         -153.37027
    106       2.00000          -5.636217         -153.36927
    107       2.00000          -5.636172         -153.36805
    108       2.00000          -5.636166         -153.36788
    109       2.00000          -5.636160         -153.36772
    110       2.00000          -5.636149         -153.36742
    111       2.00000          -5.636129         -153.36688
    112       2.00000          -5.636110         -153.36634
    113       2.00000          -5.636006         -153.36353
    114       2.00000          -5.635956         -153.36217
    115       2.00000          -5.635906         -153.36081
    116       2.00000          -5.635902         -153.36070
    117       2.00000          -5.635892         -153.36043
    118       2.00000          -5.635871         -153.35985
    119       2.00000          -5.635831         -153.35877
    120       2.00000          -5.635820         -153.35846
    121       2.00000          -5.635341         -153.34543
    122       2.00000          -5.635297         -153.34422
    123       2.00000          -5.635260         -153.34324
    124       2.00000          -5.635255         -153.34309
    125       2.00000          -5.635253         -153.34303
    126       2.00000          -5.635240         -153.34269
    127       2.00000          -5.635229         -153.34239
    128       2.00000          -5.635207         -153.34179
    129       2.00000          -3.273933          -89.08826
    130       2.00000          -3.273917          -89.08782
    131       2.00000          -3.273915          -89.08776
    132       2.00000          -3.273797          -89.08455
    133       2.00000          -2.020222          -54.97305
    134       2.00000          -2.020209          -54.97267
    135       2.00000          -2.020173          -54.97170
    136       2.00000          -2.020037          -54.96800
    137       2.00000          -2.019215          -54.94563
    138       2.00000          -2.019213          -54.94557
    139       2.00000          -2.019167          -54.94433
    140       2.00000          -2.019037          -54.94078
    141       2.00000          -2.013031          -54.77737
    142       2.00000          -2.013024          -54.77717
    143       2.00000          -2.013021          -54.77709
    144       2.00000          -2.012916          -54.77424
    145       2.00000          -1.969259          -53.58627
    146       2.00000          -1.969191          -53.58441
    147       2.00000          -1.969151          -53.58331
    148       2.00000          -1.969124          -53.58259
    149       2.00000          -1.968200          -53.55745
    150       2.00000          -1.968156          -53.55626
    151       2.00000          -1.968113          -53.55509
    152       2.00000          -1.968094          -53.55456
    153       2.00000          -1.967762          -53.54552
    154       2.00000          -1.967741          -53.54495
    155       2.00000          -1.967698          -53.54379
    156       2.00000          -1.967683          -53.54338
    157       2.00000          -1.967629          -53.54191
    158       2.00000          -1.967600          -53.54113
    159       2.00000          -1.967554          -53.53986
    160       2.00000          -1.967544          -53.53960
    161       2.00000          -1.967343          -53.53412
    162       2.00000          -1.967310          -53.53322
    163       2.00000          -1.967299          -53.53292
    164       2.00000          -1.967281          -53.53243
    165       2.00000          -1.967262          -53.53191
    166       2.00000          -1.967255          -53.53173
    167       2.00000          -1.967229          -53.53104
    168       2.00000          -1.967229          -53.53102
    169       2.00000          -1.967207          -53.53044
    170       2.00000          -1.967203          -53.53033
    171       2.00000          -1.967190          -53.52997
    172       2.00000          -1.967181          -53.52971
    173       2.00000          -1.967158          -53.52910
    174       2.00000          -1.967151          -53.52891
    175       2.00000          -1.967145          -53.52874
    176       2.00000          -1.967129          -53.52830
    177       2.00000          -1.966677          -53.51599
    178       2.00000          -1.966649          -53.51524
    179       2.00000          -1.966613          -53.51427
    180       2.00000          -1.966602          -53.51396
    181       2.00000          -1.966324          -53.50639
    182       2.00000          -1.966302          -53.50581
    183       2.00000          -1.966262          -53.50471
    184       2.00000          -1.966257          -53.50457
    185       2.00000          -0.759462          -20.66601
    186       2.00000          -0.740454          -20.14878
    187       2.00000          -0.720366          -19.60216
    188       2.00000          -0.718702          -19.55687
    189       2.00000          -0.652679          -17.76030
    190       2.00000          -0.640748          -17.43565
    191       2.00000          -0.639417          -17.39942
    192       2.00000          -0.627528          -17.07590
    193       2.00000          -0.418362          -11.38422
    194       2.00000          -0.410577          -11.17237
    195       2.00000          -0.389516          -10.59927
    196       2.00000          -0.376414          -10.24274
    197       2.00000          -0.370712          -10.08758
    198       2.00000          -0.369254          -10.04791
    199       2.00000          -0.366435           -9.97121
    200       2.00000          -0.366080           -9.96155
    201       2.00000          -0.364574           -9.92057
    202       2.00000          -0.362847           -9.87356
    203       2.00000          -0.361325           -9.83214
    204       2.00000          -0.351696           -9.57015
    205       2.00000          -0.342021           -9.30688
    206       2.00000          -0.330910           -9.00452
    207       2.00000          -0.324685           -8.83513
    208       2.00000          -0.316708           -8.61807
    209       2.00000          -0.316481           -8.61188
    210       2.00000          -0.306007           -8.32686
    211       2.00000          -0.288625           -7.85389
    212       2.00000          -0.286403           -7.79343
    213       2.00000          -0.285114           -7.75833
    214       2.00000          -0.280017           -7.61965
    215       2.00000          -0.279150           -7.59606
    216       2.00000          -0.277231           -7.54384
    217       2.00000          -0.276170           -7.51498
    218       2.00000          -0.275570           -7.49865
    219       2.00000          -0.273695           -7.44763
    220       2.00000          -0.270317           -7.35569
    221       2.00000          -0.265431           -7.22274
    222       2.00000          -0.263825           -7.17905
    223       2.00000          -0.263451           -7.16886
    224       2.00000          -0.257906           -7.01797
    225       2.00000          -0.224142           -6.09922
    226       2.00000          -0.215122           -5.85377
    227       2.00000          -0.212894           -5.79315
    228       0.00000          -0.164330           -4.47166
    229       0.00000          -0.152661           -4.15412
    230       0.00000          -0.135197           -3.67891
    231       0.00000          -0.129879           -3.53420
    232       0.00000          -0.128551           -3.49804
    233       0.00000          -0.125830           -3.42402
    234       0.00000          -0.115556           -3.14443
    235       0.00000          -0.114958           -3.12816
    236       0.00000          -0.082121           -2.23462
    237       0.00000          -0.037343           -1.01616
    238       0.00000          -0.030134           -0.81999
    239       0.00000          -0.002405           -0.06545
    240       0.00000           0.022225            0.60479
    241       0.00000           0.025849            0.70339
    242       0.00000           0.027375            0.74491
    243       0.00000           0.057647            1.56866
    244       0.00000           0.089400            2.43271
    245       0.00000           0.102135            2.77924
    246       0.00000           0.111463            3.03306
    247       0.00000           0.118621            3.22784
    248       0.00000           0.122845            3.34278
    249       0.00000           0.124970            3.40060
    250       0.00000           0.125596            3.41765
    251       0.00000           0.137651            3.74567
    252       0.00000           0.151811            4.13099
    253       0.00000           0.160093            4.35635
    254       0.00000           0.170855            4.64921
    255       0.00000           0.176852            4.81238
    256       0.00000           0.189528            5.15731
    257       0.00000           0.191960            5.22350
    258       0.00000           0.198820            5.41016
    259       0.00000           0.220189            5.99164
    260       0.00000           0.231465            6.29847
    261       0.00000           0.247576            6.73688
    262       0.00000           0.257884            7.01739
    263       0.00000           0.267252            7.27229
    264       0.00000           0.280289            7.62704
    265       0.00000           0.281181            7.65133
[...]
  |                x                y                z                |
  |                                                                   |
  |  x        -0.00018300       0.00000296       0.00004076           |
  |  y         0.00000296       0.00014331       0.00001005           |
  |  z         0.00004076       0.00001005      -0.00002780           |
  |                                                                   |
  |  Pressure:       0.00002250   [eV/A**3]                           |
  |                                                                   |
  +-------------------------------------------------------------------+

 * Warning: Stress tensor is anisotropic. Be aware that pressure is an isotropic quantity.


  Leaving Libmbd.

  Timings for VdW correction (Tkatchenko-Scheffler 2009 or later):
  | CPU time:       82.968 s, Wall clock time:       82.971 s.
  Removing unitary transformations (pure translations, rotations) from forces on atoms.
  Atomic forces before filtering:
  | Net force on center of mass :  -0.310281E-04  0.368055E-04  0.155527E-04 eV/A
  Atomic forces after filtering:
  | Net force on center of mass :  -0.696899E-18  0.696899E-18  0.348449E-18 eV/A

  Energy and forces in a compact form:
  | Total energy uncorrected      :         -0.108791111523864E+07 eV
  | Total energy corrected        :         -0.108791111633826E+07 eV  <-- do not rely on this value for anything but (periodic) metals
  | Electronic free energy        :         -0.108791111743787E+07 eV
  Total atomic forces (unitary forces cleaned) [eV/Ang]:
  |    1          0.143062747420355E-03         -0.288256421874257E-02          0.247803280127977E-02
  |    2          0.134168881545169E-02         -0.376552009738586E-03         -0.157989805870341E-02
  |    3         -0.211355068458287E-02         -0.194494202034068E-02          0.203803018544916E-02
  |    4          0.358833648612495E-03         -0.102525240657062E-02         -0.157885504668904E-02
  |    5          0.106822825151280E-02         -0.559059302541276E-04         -0.232444523644343E-03
  |    6          0.246045504549410E-02          0.302359267084252E-02         -0.104176717447966E-02
  |    7         -0.227325817796463E-02          0.170372831888334E-02          0.799776439722251E-04
  |    8         -0.378061483160181E-02         -0.369569766285738E-03          0.159320974373471E-02
  |    9         -0.174965816303804E-02          0.218510406133632E-03          0.155797452295853E-03
  |   10         -0.520461134914149E-03         -0.167029062613897E-03         -0.243636595161747E-03
  |   11          0.107197575840471E-02         -0.527767338547165E-03          0.585298018827319E-03
  |   12          0.399329872520535E-02          0.240375135723390E-02         -0.225374444688083E-02

  ------------------------------------ 
  Start decomposition of the XC Energy 
  ------------------------------------ 
  X and C from original XC functional choice 
  Hartree-Fock Energy :          0.000000000 Ha              0.000000000 eV
  X Energy            :      -1261.088145772 Ha         -34315.954423002 eV
  C Energy            :        -23.237153847 Ha           -632.315128018 eV
  Total XC Energy     :      -1284.325299619 Ha         -34948.269551020 eV
  ------------------------------------ 
  LDA X and C from self-consistent density 
  X Energy LDA        :      -1197.518374652 Ha         -32586.132938458 eV
  C Energy LDA        :        -42.068270927 Ha          -1144.735895440 eV
  ------------------------------------ 
  End decomposition of the XC Energy 
  ------------------------------------ 

------------------------------------------------------------
  Relaxation / MD: End force evaluation.       :  max(cpu_time)    wall_clock(cpu1)
  | Time for this force evaluation             :     1434.939 s        1437.383 s

------------------------------------------------------------
  Geometry optimization: Attempting to predict improved coordinates.

  +-------------------------------------------------------------------+
  | Generalized derivatives on lattice vectors [eV/A]                 |
  +-------------------------------------------------------------------+
  |lattice_vector      -0.00817963       0.00013243       0.00182179  |
  |lattice_vector       0.00013000       0.00628781       0.00044075  |
  |lattice_vector       0.00141862       0.00034963      -0.00096771  |
  +-------------------------------------------------------------------+
  | Forces on lattice vectors cleaned from atomic contributions [eV/A]|
  +-------------------------------------------------------------------+
  |lattice_vector       0.00817963      -0.00013243      -0.00182179  |
  |lattice_vector      -0.00013000      -0.00628781      -0.00044075  |
  |lattice_vector      -0.00141862      -0.00034963       0.00096771  |
  +-------------------------------------------------------------------+
  Symmetrized total atomic cartesian forces [eV/Ang]:
  |   1     0.1430627474E-03    -0.2882564219E-02     0.2478032801E-02
  |   2     0.1341688815E-02    -0.3765520097E-03    -0.1579898059E-02
  |   3    -0.2113550685E-02    -0.1944942020E-02     0.2038030185E-02
  |   4     0.3588336486E-03    -0.1025252407E-02    -0.1578855047E-02
  |   5     0.1068228252E-02    -0.5590593025E-04    -0.2324445236E-03
  |   6     0.2460455045E-02     0.3023592671E-02    -0.1041767174E-02
  |   7    -0.2273258178E-02     0.1703728319E-02     0.7997764397E-04
  |   8    -0.3780614832E-02    -0.3695697663E-03     0.1593209744E-02
  |   9    -0.1749658163E-02     0.2185104061E-03     0.1557974523E-03
  |  10    -0.5204611349E-03    -0.1670290626E-03    -0.2436365952E-03
  |  11     0.1071975758E-02    -0.5277673385E-03     0.5852980188E-03
  |  12     0.3993298725E-02     0.2403751357E-02    -0.2253744447E-02
  +-------------------------------------------------------------------+
  | Symmetrized forces on lattice vectors cleaned from symmetrized
  | atomic contributions [eV/A]|
  +-------------------------------------------------------------------+
  |lattice_vector       0.00817963       0.00000000       0.00000000  |
  |lattice_vector       0.00000000      -0.00628781       0.00000000  |
  |lattice_vector       0.00000000       0.00000000       0.00096771  |
  +-------------------------------------------------------------------+
  Removing unitary transformations (pure translations, rotations) from forces on atoms.
  Atomic forces before filtering:
  | Net force on center of mass :  -0.696899E-18  0.139380E-17  0.348449E-18 eV/A
  Atomic forces after filtering:
  | Net force on center of mass :   0.000000E+00  0.000000E+00  0.348449E-18 eV/A
  Net remaining forces (excluding translations, rotations) in present geometry:
  || Forces on atoms   || =   0.399330E-02 eV/A.
  || Forces on lattice || =   0.817963E-02 eV/A^3.
  Maximum force component is  0.817963E-02 eV/A.
  Present geometry is converged.

  Symmetry-reduced parameters:
  | atomic   1          0.502327901236977E+00
  | atomic   2          0.241088943000576E-02
  | atomic   3          0.215921360249555E-02
  | atomic   4          0.233102527498165E-02
  | atomic   5          0.237901087237480E-02
  | atomic   6          0.502650616300172E+00
  | atomic   7          0.250820876344769E-02
  | atomic   8          0.502383556177787E+00
  | atomic   9          0.216574747606214E-02
  | atomic  10          0.502460056541097E+00
  | atomic  11          0.502403061905013E+00
  | atomic  12          0.502630246277026E+00
  | atomic  13          0.614510126669435E+00
  | atomic  14          0.120773793136327E+00
  | atomic  15          0.405678594552193E+00
  | atomic  16          0.890250823136524E+00
  | atomic  17          0.884027775344652E+00
  | atomic  18          0.905519984278043E+00
  | atomic  19          0.114546855371840E+00
  | atomic  20          0.384060587029410E+00
  | atomic  21          0.599312018448283E+00
  | atomic  22          0.390356278900374E+00
  | atomic  23          0.620785837728174E+00
  | atomic  24          0.991215802737561E-01
  | atomic  25          0.390325672327303E+00
  | atomic  26          0.884096369729722E+00
  | atomic  27          0.599326708121955E+00
  | atomic  28          0.114515298125293E+00
  | atomic  29          0.120755349488126E+00
  | atomic  30          0.991261268379889E-01
  | atomic  31          0.890278342835047E+00
  | atomic  32          0.620761986258324E+00
  | atomic  33          0.405683407724271E+00
  | atomic  34          0.614481677637859E+00
  | atomic  35          0.384054004677238E+00
  | atomic  36          0.905518021104347E+00
  | lattice  1          0.584519870232653E+01
  | lattice  2          0.595455123358837E+01
  | lattice  3          0.750642412870252E+01
  Symmetry-reduced forces:
  | atomic   1          0.836230185572729E-03
  | atomic   2         -0.171643763246113E-01
  | atomic   3          0.186011652112427E-01
  | atomic   4          0.784243772300424E-02
  | atomic   5         -0.224219823409908E-02
  | atomic   6         -0.118593849087416E-01
  | atomic   7         -0.123541237188251E-01
  | atomic   8         -0.115812569064775E-01
  | atomic   9          0.152983189590796E-01
  | atomic  10          0.209745397722085E-02
  | atomic  11         -0.610491798228456E-02
  | atomic  12         -0.118515556181903E-01
  | atomic  13          0.624400638953115E-02
  | atomic  14         -0.332894725959622E-03
  | atomic  15         -0.174482718086866E-02
  | atomic  16          0.143818486390549E-01
  | atomic  17          0.180041374680341E-01
  | atomic  18         -0.781994625500436E-02
  | atomic  19         -0.132876457518920E-01
  | atomic  20          0.101449375629062E-01
  | atomic  21          0.600346116469890E-03
  | atomic  22         -0.220984449076754E-01
  | atomic  23         -0.220062210773371E-02
  | atomic  24          0.119593080624542E-01
  | atomic  25         -0.102270996241050E-01
  | atomic  26          0.130113140839491E-02
  | atomic  27          0.116948175510397E-02
  | atomic  28         -0.304219875041157E-02
  | atomic  29         -0.994583110832690E-03
  | atomic  30         -0.182883961655706E-02
  | atomic  31          0.626591131195271E-02
  | atomic  32         -0.314261765679368E-02
  | atomic  33          0.439349517100717E-02
  | atomic  34          0.233416245265725E-01
  | atomic  35          0.143132606094569E-01
  | atomic  36         -0.169175616959956E-01
  | lattice  1          0.817963072259386E-02
  | lattice  2         -0.628781399077842E-02
  | lattice  3          0.967707425232351E-03
------------------------------------------------------------
  Final atomic structure:
                         x [A]             y [A]             z [A]
  lattice_vector         5.84519870        0.00000000        0.00000000
  lattice_vector         0.00000000        5.95455123        0.00000000
  lattice_vector         0.00000000        0.00000000        7.50642413

            atom        -2.90899231        0.01435576        0.01620797  Pd
            atom         0.01362531        0.01416594       -3.73331541  Pd
            atom         0.01466098       -2.96308261        0.01625702  Pd
            atom        -2.90821983       -2.96296646       -3.73346832  Pd
            atom        -2.25326491        0.71915374        3.04519559  Se
            atom        -0.64150575       -0.69056255       -0.70920707  Se
            atom         0.66954913        2.28690844       -3.00773393  Se
            atom         2.28171001       -2.25805016        0.74404862  Se
            atom         2.28153111       -0.69015410       -3.00762367  Se
            atom         0.66936467        0.71904392        0.74408275  Se
            atom        -0.64134489       -2.25819218        3.04523172  Se
            atom        -2.25343120        2.28686925       -0.70922181  Se

  Fractional coordinates:
                         L1                L2                L3
       atom_frac        -0.49767210        0.00241089        0.00215921  Pd
       atom_frac         0.00233103        0.00237901       -0.49734938  Pd
       atom_frac         0.00250821       -0.49761644        0.00216575  Pd
       atom_frac        -0.49753994       -0.49759694       -0.49736975  Pd
       atom_frac        -0.38548987        0.12077379        0.40567859  Se
       atom_frac        -0.10974918       -0.11597222       -0.09448002  Se
       atom_frac         0.11454686        0.38406059       -0.40068798  Se
       atom_frac         0.39035628       -0.37921416        0.09912158  Se
       atom_frac         0.39032567       -0.11590363       -0.40067329  Se
       atom_frac         0.11451530        0.12075535        0.09912613  Se
       atom_frac        -0.10972166       -0.37923801        0.40568341  Se
       atom_frac        -0.38551832        0.38405400       -0.09448198  Se
------------------------------------------------------------

------------------------------------------------------------------------------
  Final output of selected total energy values:

  The following output summarizes some interesting total energy values
  at the end of a run (AFTER all relaxation, molecular dynamics, etc.).

  | Total energy of the DFT / Hartree-Fock s.c.f. calculation      :       -1087911.115238643 eV
  | Final zero-broadening corrected energy (caution - metals only) :       -1087911.116338256 eV
  | For reference only, the value of 1 Hartree used in FHI-aims is :             27.211384500 eV
  | For reference only, the overall average (free atom contribution
  | + realspace contribution) of the electrostatic potential after
  | s.c.f. convergence is                                          :            -16.959120070 eV

  Before relying on these values, please be sure to understand exactly which
  total energy value is referred to by a given number. Different objects may
  all carry the same name 'total energy'. Definitions:

  Total energy of the DFT / Hartree-Fock s.c.f. calculation:
  | Note that this energy does not include ANY quantities calculated after the
  | s.c.f. cycle, in particular not ANY RPA, MP2, etc. many-body perturbation terms.

  Final zero-broadening corrected energy:
  | For metallic systems only, a broadening of the occupation numbers at the Fermi
  | level can be extrapolated back to zero broadening by an electron-gas inspired
  | formula. For all systems that are not real metals, this value can be
  | meaningless and should be avoided.

------------------------------------------------------------------------------
  Methods described in the following list of references were used in this FHI-aims run.
  If you publish the results, please make sure to cite these reference if they apply.
  FHI-aims is an academic code, and for our developers (often, Ph.D. students
  and postdocs), scientific credit in the community is essential.
  Thank you for helping us!

  For any use of FHI-aims, please cite:

    Volker Blum, Ralf Gehrke, Felix Hanke, Paula Havu, Ville Havu,
    Xinguo Ren, Karsten Reuter, and Matthias Scheffler
    'Ab initio molecular simulations with numeric atom-centered orbitals'
    Computer Physics Communications 180, 2175-2196 (2009)
    http://dx.doi.org/10.1016/j.cpc.2009.06.022


  For the analytical stress tensor used in your run, please cite:

    Franz Knuth, Christian Carbogno, Viktor Atalla, Volker Blum, Matthias Scheffler
    'All-electron formalism for total energy strain derivatives and
    stress tensor components for numeric atom-centered orbitals'
    Computer Physics Communications 190, 33-50 (2015).
    http://dx.doi.org/10.1016/j.cpc.2015.01.003


  The provided symmetry information was generated with SPGlib:

    Atsushi Togo, Yusuke Seto, Dimitar Pashov
    SPGlib 1.7.3 obtained from http://spglib.sourceforge.net
    Copyright (C) 2008 Atsushi Togo


  The ELSI infrastructure was used in your run to solve the Kohn-Sham electronic structure.
  Please check out http://elsi-interchange.org to learn more.
  If scalability is important for your project, please acknowledge ELSI by citing:

    V. W-z. Yu, F. Corsetti, A. Garcia, W. P. Huhn, M. Jacquelin, W. Jia,
    B. Lange, L. Lin, J. Lu, W. Mi, A. Seifitokaldani, A. Vazquez-Mayagoitia,
    C. Yang, H. Yang, and V. Blum
    'ELSI: A unified software interface for Kohn-Sham electronic structure solvers'
    Computer Physics Communications 222, 267-285 (2018).
    http://dx.doi.org/10.1016/j.cpc.2017.09.007


  For the real-space grid partitioning and parallelization used in this calculation, please cite:

    Ville Havu, Volker Blum, Paula Havu, and Matthias Scheffler,
    'Efficient O(N) integration for all-electron electronic structure calculation'
    'using numerically tabulated basis functions'
    Journal of Computational Physics 228, 8367-8379 (2009).
    http://dx.doi.org/10.1016/j.jcp.2009.08.008

  Of course, there are many other important community references, e.g., those cited in the
  above references. Our list is limited to references that describe implementations in the
  FHI-aims code. The reason is purely practical (length of this list) - please credit others as well.

------------------------------------------------------------
          Leaving FHI-aims.
          Date     :  20200420, Time     :  232933.852

          Computational steps:
          | Number of self-consistency cycles          :          102
          | Number of SCF (re)initializations          :            5
          | Number of relaxation steps                 :            4

          Detailed time accounting                     :  max(cpu_time)    wall_clock(cpu1)
          | Total time                                 :     9383.093 s        9388.305 s
          | Preparation time                           :        0.550 s           0.583 s
          | Boundary condition initalization           :        1.264 s           1.227 s
          | Grid partitioning                          :        1.734 s           1.734 s
          | Preloading free-atom quantities on grid    :        4.645 s           4.646 s
          | Free-atom superposition energy             :        0.683 s           0.682 s
          | Total time for integrations                :      291.713 s         291.705 s
          | Total time for solution of K.-S. equations :     6162.574 s        6171.716 s
          | Total time for EV reorthonormalization     :       77.892 s          75.323 s
          | Total time for density & force components  :     2099.000 s        2099.073 s
          | Total time for mixing & preconditioning    :       69.131 s          69.199 s
          | Total time for Hartree multipole update    :        0.466 s           0.429 s
          | Total time for Hartree multipole sum       :      235.672 s         235.677 s
          | Total time for total energy evaluation     :        9.188 s           9.465 s
          | Total time for scaled ZORA corrections     :        0.000 s           0.000 s
          | Total time for vdW correction              :      413.180 s         413.198 s

          Partial memory accounting:
          | Residual value for overall tracked memory usage across tasks:     0.000000 MB (should be 0.000000 MB)
          | Peak values for overall tracked memory usage:
          |   Minimum:     1810.777 MB (on task 21 after allocating d_wave)
          |   Maximum:     1815.919 MB (on task  6 after allocating d_wave)
          |   Average:     1813.661 MB
          | Largest tracked array allocation:
          |   Minimum:      881.785 MB (KS_eigenvector_complex on task  0)
          |   Maximum:      883.884 MB (KS_eigenvector_complex on task  1)
          |   Average:      882.922 MB
          Note:  These values currently only include a subset of arrays which are explicitly tracked.
          The "true" memory usage will be greater.

          Have a nice day.
------------------------------------------------------------
