------------------------------------------------------------
          Invoking FHI-aims ...

          When using FHI-aims, please cite the following reference:

            Volker Blum, Ralf Gehrke, Felix Hanke, Paula Havu,
            Ville Havu, Xinguo Ren, Karsten Reuter, and Matthias Scheffler,
            'Ab Initio Molecular Simulations with Numeric Atom-Centered Orbitals',
            Computer Physics Communications 180, 2175-2196 (2009)

          In addition, many other developments in FHI-aims are likely important for
          your particular application. A partial list of references is given at the end of
          this file. Thank you for giving credit to the authors of these developments.

          For any questions about FHI-aims, please visit our slack channel at

            https://fhi-aims.slack.com

          and our main development and support site at

            https://aims-git.rz-berlin.mpg.de .

          The latter site, in particular, has a wiki to collect information, as well
          as an issue tracker to log discussions, suggest improvements, and report issues
          or bugs. https://aims-git.rz-berlin.mpg.de is also the main development site
          of the project and all new and updated code versions can be obtained there.
          Please send an email to aims-coordinators@fhi-berlin.mpg.de and we will add
          you to these sites. They are for you and everyone is welcome there.

------------------------------------------------------------



  Date     :  20201121, Time     :  225926.059
  Time zero on CPU 1             :   0.140625000000000E+00  s.
  Internal wall clock time zero  :           375231566.059  s.

  FHI-aims created a unique identifier for this run for later identification
  aims_uuid : 89A6DD92-C44C-4628-AB9F-34CEA7DDC618

  Build configuration of the current instance of FHI-aims
  -------------------------------------------------------
  FHI-aims version      : 201103
  Commit number         : faf196098
  CMake host system     : Linux-4.4.0-19041-Microsoft
  CMake version         : 3.18.4
  Fortran compiler      : /home/roman/miniconda3/envs/aims-env/bin/mpifort (GNU) version 7.5.0
  Fortran compiler flags: -O2 -ffree-line-length-none
  C compiler            : /home/roman/miniconda3/envs/aims-env/bin/gcc (GNU) version 7.5.0
  C compiler flags      : -O2 -funroll-loops -std=gnu99
  Using MPI
  Using LibXC
  Using i-PI
  Using RLSY
  Linking against: /home/roman/miniconda3/envs/aims-env/lib/libmkl_intel_lp64.so
                   /home/roman/miniconda3/envs/aims-env/lib/libmkl_sequential.so
                   /home/roman/miniconda3/envs/aims-env/lib/libmkl_core.so

  Using        2 parallel tasks.
  Task        0 on host DESKTOP-A6RSI3L reporting.
  Task        1 on host DESKTOP-A6RSI3L reporting.

  Performing system and environment tests:
  *** Environment variable OMP_NUM_THREADS is not set
  *** For performance reasons you might want to set it to 1
  | Checking for ScaLAPACK...
  | No ScaLAPACK compiled in.

  Obtaining array dimensions for all initial allocations:
  
  -----------------------------------------------------------------------
  Parsing control.in (first pass over file, find array dimensions only).
  The contents of control.in will be repeated verbatim below
  unless switched off by setting 'verbatim_writeout .false.' .
  in the first line of control.in .
  -----------------------------------------------------------------------
  
  #===============================================================================
  # FHI-aims file: ./control.in
  # Created using the Atomic Simulation Environment (ASE)
  # Thu Oct 24 13:07:52 2019
  #
  # List of parameters used to initialize the calculator:
  #     relativistic : ('atomic_zora', 'scalar')
  #     sc_accuracy_eev : 1E-3
  #     k_grid : [6, 6, 1]
  #     xc : pbe
  #     spin : none
  #     species_dir : /chemsoft/FHI-aims/171221_1/species_defaults/tight
  #     sc_accuracy_etot : 1E-6
  #     sc_iter_limit : 500
  #===============================================================================
  relativistic                       atomic_zora scalar
  check_stacksize .false.
  k_grid                             12 12 1
  xc                                 pbe
  spin                               none
  adjust_scf                         once 2
  sc_iter_limit                      500
  ### band structure section
  output band_mulliken 0.000000 0.000000 0.000000    0.500000 0.000000 0.000000  51  G M
  output band_mulliken 0.500000 0.000000 0.000000    0.333333 0.333333 0.000000  51  M K
  output band_mulliken 0.333333 0.333333 0.000000    0.000000 0.000000 0.000000  51  K G
  #===============================================================================
  
  ################################################################################
  #
  #  FHI-aims code project
  # Volker Blum, Fritz Haber Institute Berlin, 2009
  #
  #  Suggested "tight" defaults for Mo atom (to be pasted into control.in file)
  #
  ################################################################################
    species        Mo
  #     global species definitions
      nucleus             42
      mass                95.94
  #
      l_hartree           6
  #
      cut_pot             4.0  2.0  1.0
      basis_dep_cutoff    1e-4
  #
      radial_base         59 7.0
      radial_multiplier   2
      angular_grids specified
        division   0.3117   50
        division   0.6750  110
        division   1.0351  194
        division   1.2073  302
        division   1.6402  434
  #      division   1.9185  590
  #      division   2.0237  770
  #      division   2.0980  974
  #      division   2.7972 1202
  #      outer_grid  974
        outer_grid  434
  ################################################################################
  #
  #  Definition of "minimal" basis
  #
  ################################################################################
  #     valence basis states
      valence      5  s   1.
      valence      4  p   6.
      valence      4  d   5.
  #     ion occupancy
      ion_occ     5  s   0.
      ion_occ     4  p   6.
      ion_occ     4  d   4.
  ################################################################################
  #
  #  Suggested additional basis functions. For production calculations,
  #  uncomment them one after another (the most important basis functions are
  #  listed first).
  #
  #  Constructed for dimers: 1.675 A, 1.9 A, 2.375 A, 3.00 A, 4.00 A
  #
  ################################################################################
  #  "First tier"  - max. impr. -711.23  meV, min. impr. -21.07 meV
       hydro 4 f 8.4
       hydro 3 d 2.8
       ionic 5 p auto
       hydro 5 g 12
       ionic 5 s auto
  #  "Second tier" - max. impr. -39.38  meV, min. impr. -2.68 meV
  #     hydro 4 f 12.4
  #     hydro 3 d 3.3
  #     hydro 6 h 17.2
  #     hydro 4 f 7.6
  #     hydro 3 p 3.0
  #     hydro 1 s 0.65
  ##  "Third tier"  - max. impr. -5.50 meV, min. impr. -0.47 meV
  #     hydro 4 f 29.2
  #     hydro 5 g 11.2
  #     hydro 3 d 6.8
  #     hydro 6 h 14.8
  #     hydro 2 p 2.3
  #     hydro 4 s 3.8
  #  "Fourth tier"  - max. impr. -0.58 meV, min. impr. -0.19 meV
  #     hydro 5 f 6.8
  #     hydro 5 d 14.8
  #     hydro 6 s 7.8
  #     hydro 5 g 20.8
  #     hydro 5 d 10.4
  #     hydro 5 p 9.8
  #  Further functions - -0.17 meV and below
  #     hydro 5 d 3.2
  ################################################################################
  #
  #  FHI-aims code project
  # Volker Blum, Fritz Haber Institute Berlin, 2009
  #
  #  Suggested "tight" defaults for Se atom (to be pasted into control.in file)
  #
  ################################################################################
    species        Se
  #     global species definitions
      nucleus             34
      mass                78.96
  #
      l_hartree           6
  #
      cut_pot             4.0          2.0  1.0
      basis_dep_cutoff    1e-4
  #
      radial_base         55 7.0
      radial_multiplier   2
      angular_grids       specified
        division   0.0830  110
        division   0.1357  194
        division   0.7377  302
        division   0.8610  434
  #      division   0.9640  590
  #      division   1.0773  770
  #      division   2.5539  974
  #      outer_grid  974
        outer_grid  434
  ################################################################################
  #
  #  Definition of "minimal" basis
  #
  ################################################################################
  #     valence basis states
      valence      4  s   2.
      valence      4  p   4.
      valence      3  d  10.
  #     ion occupancy
      ion_occ      4  s   1.
      ion_occ      4  p   3.
      ion_occ      3  d  10.
  ################################################################################
  #
  #  Suggested additional basis functions. For production calculations,
  #  uncomment them one after another (the most important basis functions are
  #  listed first).
  #
  #  Constructed for dimers: 1.85 A, 2.15 A, 2.50 A, 3.00 A, 4.00 A
  #
  ################################################################################
  #  "First tier" - improvements: -336.21 meV to -36.85 meV
       hydro 3 d 4.3
       hydro 2 p 1.6
       hydro 4 f 7.2
       ionic 4 s auto
  #  "Second tier" - improvements: -14.39 meV to -1.49 meV
  #     hydro 5 g 10.4
  #     hydro 4 p 4.5
  #     hydro 4 d 6.2
  #     hydro 4 f 11.2
  #     hydro 1 s 0.65
  #     hydro 6 h 15.2
  ##  "Third tier" - improvements: -0.46 meV and below
  #     hydro 5 g 14.4
  #     ionic 4 d auto
  #     hydro 4 f 22.4
  #     hydro 5 f 7.4
  #     hydro 5 p 8
  #     hydro 5 s 9.4
  #  "Fourth tier" - improvements: -0.12 meV and below
  #     hydro 5 d 11.6
  #     hydro 6 h 18
  #     hydro 4 p 4
  #     hydro 5 f 16
  #     hydro 4 s 3.9
  #
  #
  
  -----------------------------------------------------------------------
  Completed first pass over input file control.in .
  -----------------------------------------------------------------------
  
  
  -----------------------------------------------------------------------
  Parsing geometry.in (first pass over file, find array dimensions only).
  The contents of geometry.in will be repeated verbatim below
  unless switched off by setting 'verbatim_writeout .false.' .
  in the first line of geometry.in .
  -----------------------------------------------------------------------
  
  #=======================================================
  # FHI-aims file: ./geometry.in
  # Created using the Atomic Simulation Environment (ASE)
  # Thu Oct 24 13:07:52 2019
  #=======================================================
  lattice_vector 3.2900000000000000 0.0000000000000000 0.0000000000000000
  lattice_vector -1.6450000000000000 2.8492235799999999 0.0000000000000000
  lattice_vector 0.0000000000000000 0.0000000000000000 100.0000000000000000
  atom -0.0000000000000000 1.8994823900000000 3.2275000000000000 Mo
  atom 1.6450000000000000 0.9497411900000000 4.8864349999999996 Se
  atom 1.6450000000000000 0.9497411900000000 1.5685650000000000 Se
  
  -----------------------------------------------------------------------
  Completed first pass over input file geometry.in .
  -----------------------------------------------------------------------
  

  Basic array size parameters:
  | Number of species                 :        2
  | Number of atoms                   :        3
  | Number of lattice vectors         :        3
  | Max. basis fn. angular momentum   :        4
  | Max. atomic/ionic basis occupied n:        5
  | Max. number of basis fn. types    :        3
  | Max. radial fns per species/type  :       10
  | Max. logarithmic grid size        :     1436
  | Max. radial integration grid size :      119
  | Max. angular integration grid size:      434
  | Max. angular grid division number :        8
  | Radial grid for Hartree potential :     1436
  | Number of spin channels           :        1

------------------------------------------------------------
          Reading file control.in.
------------------------------------------------------------
  Scalar relativistic treatment of kinetic energy: on-site free-atom approximation to ZORA.
  Found k-point grid:        12        12         1
  XC: Using PBE gradient-corrected functionals.
  Spin treatment: No spin polarisation.
  S.C.F. convergence parameters will be adjusted in iteration number     2 of the first full s.c.f. cycle only.
  Maximum number of s.-c. iterations  :   500
  Mulliken analysis of all k points in band will be performed

  Plot band    1
  | begin  0.000000  0.000000  0.000000
  | end    0.500000  0.000000  0.000000
  | number of points:   51
  Mulliken analysis of all k points in band will be performed

  Plot band    2
  | begin  0.500000  0.000000  0.000000
  | end    0.333333  0.333333  0.000000
  | number of points:   51
  Mulliken analysis of all k points in band will be performed

  Plot band    3
  | begin  0.333333  0.333333  0.000000
  | end    0.000000  0.000000  0.000000
  | number of points:   51

  Reading configuration options for species Mo                  .
  | Found nuclear charge :  42.0000
  | Found atomic mass :    95.939999999999998      amu
  | Found l_max for Hartree potential  :   6
  | Found cutoff potl. onset [A], width [A], scale factor :    4.00000    2.00000    1.00000
  | Threshold for basis-dependent cutoff potential is   0.100000E-03
  | Found data for basic radial integration grid :    59 points, outermost radius =    7.000 A
  | Found multiplier for basic radial grid :   2
  | Found angular grid specification: user-specified.
  | Specified grid contains     6 separate shells.
  | Check grid settings after all constraints further below.
  | Found free-atom valence shell :  5 s   1.000
  | Found free-atom valence shell :  4 p   6.000
  | Found free-atom valence shell :  4 d   5.000
  | Found free-ion valence shell :  5 s   0.000
  | Found free-ion valence shell :  4 p   6.000
  | Found free-ion valence shell :  4 d   4.000
  | Found hydrogenic basis function :  4 f   8.400
  | Found hydrogenic basis function :  3 d   2.800
  | Found ionic basis function :  5 p , default cutoff radius.
  | Found hydrogenic basis function :  5 g  12.000
  | Found ionic basis function :  5 s , default cutoff radius.
  Species Mo                  : Missing cutoff potential type.
  Defaulting to exp(1/x)/(1-x)^2 type cutoff potential.
  Species Mo: No 'logarithmic' tag. Using default grid for free atom:
  | Default logarithmic grid data [bohr] : 0.1000E-03 0.1000E+03 0.1012E+01
  | Will include ionic basis functions of  2.0-fold positive Mo                   ion.
  Species Mo: On-site basis accuracy parameter (for Gram-Schmidt orthonormalisation) not specified.
  Using default value basis_acc =  0.1000000E-03.
  Species Mo                  : Using default innermost maximum threshold i_radial=  2 for radial functions.
  Species Mo                  : Default cutoff onset for free atom density etc. : 0.40000000E+01 AA.
  Species Mo                  : Basic radial grid will be enhanced according to radial_multiplier =   2, to contain   119 grid points.

  Reading configuration options for species Se                  .
  | Found nuclear charge :  34.0000
  | Found atomic mass :    78.959999999999994      amu
  | Found l_max for Hartree potential  :   6
  | Found cutoff potl. onset [A], width [A], scale factor :    4.00000    2.00000    1.00000
  | Threshold for basis-dependent cutoff potential is   0.100000E-03
  | Found data for basic radial integration grid :    55 points, outermost radius =    7.000 A
  | Found multiplier for basic radial grid :   2
  | Found angular grid specification: user-specified.
  | Specified grid contains     5 separate shells.
  | Check grid settings after all constraints further below.
  | Found free-atom valence shell :  4 s   2.000
  | Found free-atom valence shell :  4 p   4.000
  | Found free-atom valence shell :  3 d  10.000
  | Found free-ion valence shell :  4 s   1.000
  | Found free-ion valence shell :  4 p   3.000
  | Found free-ion valence shell :  3 d  10.000
  | Found hydrogenic basis function :  3 d   4.300
  | Found hydrogenic basis function :  2 p   1.600
  | Found hydrogenic basis function :  4 f   7.200
  | Found ionic basis function :  4 s , default cutoff radius.
  Species Se                  : Missing cutoff potential type.
  Defaulting to exp(1/x)/(1-x)^2 type cutoff potential.
  Species Se: No 'logarithmic' tag. Using default grid for free atom:
  | Default logarithmic grid data [bohr] : 0.1000E-03 0.1000E+03 0.1012E+01
  | Will include ionic basis functions of  2.0-fold positive Se                   ion.
  Species Se: On-site basis accuracy parameter (for Gram-Schmidt orthonormalisation) not specified.
  Using default value basis_acc =  0.1000000E-03.
  Species Se                  : Using default innermost maximum threshold i_radial=  2 for radial functions.
  Species Se                  : Default cutoff onset for free atom density etc. : 0.40000000E+01 AA.
  Species Se                  : Basic radial grid will be enhanced according to radial_multiplier =   2, to contain   111 grid points.

  Finished reading input file 'control.in'.

------------------------------------------------------------


------------------------------------------------------------
          Reading geometry description geometry.in.
------------------------------------------------------------
  | The smallest distance between any two atoms is         2.52192360 AA.
  | The first atom of this pair is atom number                      3 .
  | The second atom of this pair is atom number                     1 .
  | Wigner-Seitz cell of the first atom image           1     0     0 .
  | (The Wigner-Seitz cell of the second atom is 0 0 0  by definition.)

  Symmetry information by spglib:
  | Precision set to  0.1E-04
  | Number of Operations  : 12
  | Space group           : 187
  | International         : P-6m2
  | Schoenflies           : D3h^1
  Input structure read successfully.
  The structure contains        3 atoms,  and a total of        110.000 electrons.

  Input geometry:
  | Unit cell:
  |        3.29000000        0.00000000        0.00000000
  |       -1.64500000        2.84922358        0.00000000
  |        0.00000000        0.00000000      100.00000000
  | Atomic structure:
  |       Atom                x [A]            y [A]            z [A]
  |    1: Species Mo           -0.00000000        1.89948239        3.22750000
  |    2: Species Se            1.64500000        0.94974119        4.88643500
  |    3: Species Se            1.64500000        0.94974119        1.56856500

  Lattice parameters for 3D lattice (in Angstroms) :     3.290000    3.290000  100.000000
  Angle(s) between unit vectors (in degrees)       :    90.000000   90.000000  120.000000


  Quantities derived from the lattice vectors:
  | Reciprocal lattice vector 1:  1.909783  1.102614  0.000000
  | Reciprocal lattice vector 2: -0.000000  2.205227  0.000000
  | Reciprocal lattice vector 3:  0.000000  0.000000  0.062832
  | Unit cell volume                               :   0.937395E+03  A^3

  Fractional coordinates:
                         L1                L2                L3
       atom_frac         0.33333333        0.66666667        0.03227500  Mo
       atom_frac         0.66666667        0.33333333        0.04886435  Se
       atom_frac         0.66666667        0.33333333        0.01568565  Se


  Finished reading input file 'control.in'.


------------------------------------------------------------
          Reading geometry description geometry.in.
------------------------------------------------------------

  Consistency checks for the contents of control.in are next.

  MPI_IN_PLACE appears to work with this MPI implementation.
  | Keeping use_mpi_in_place .true. (see manual).
  Target number of points in a grid batch is not set. Defaulting to  100
  Method for grid partitioning is not set. Defaulting to parallel hash+maxmin partitioning.
  Batch size limit is not set. Defaulting to    200
  By default, will store active basis functions for each batch.
  If in need of memory, prune_basis_once .false. can be used to disable this option.
  communication_type for Hartree potential was not specified.
  Defaulting to calc_hartree .
  Defaulting to Pulay charge density mixer.
  Pulay mixer: Number of relevant iterations not set.
  Defaulting to    8 iterations.
  Pulay mixer: Number of initial linear mixing iterations not set.
  Defaulting to    0 iterations.
  Work space size for distributed Hartree potential not set.
  Defaulting to   0.200000E+03 MB.
  Mixing parameter for charge density mixing has not been set.
  Using default: charge_mix_param =     0.0500.
  The mixing parameter will be adjusted in iteration number     2 of the first full s.c.f. cycle only.
  Algorithm-dependent basis array size parameters:
  | n_max_pulay                         :        8
  Presetting      1001 iterations before the initial mixing cycle
  is restarted anyway using the sc_init_iter criterion / keyword.
  Presetting a factor      1.000 between actual scf density residual
  and density convergence criterion sc_accuracy_rho below which sc_init_iter
  takes no effect.
 * No s.c.f. convergence criteria (sc_accuracy_*) were provided in control.in.
 * The run will proceed with a reasonable default guess, but please check whether.
 * the s.c.f. cycles seem to take too much or too little time.
  Calculation of forces was not defined in control.in. No forces will be calculated.
  Geometry relaxation not requested: no relaxation will be performed.
 * Notice: The s.c.f. convergence criterion sc_accuracy_rho was not provided.
 * We used to stop in this case, and ask the user to provide reasonable
 * scf convergence criteria. However, this led some users to employ criteria
 * that led to extremely long run times, e.g., for simple relaxation.
 * We now preset a default value for sc_accuracy_rho if it is not set.
 * You may still wish to check if this setting is too tight or too loose for your needs.
 * Based on n_atoms, FHI-aims chose sc_accuracy_rho =  0.100000E-05 .
  No accuracy limit for integral partition fn. given. Defaulting to  0.1000E-14.
  No threshold value for u(r) in integrations given. Defaulting to  0.1000E-05.
  No occupation type (smearing scheme) given. Defaulting to Gaussian broadening, width =  0.1000E-01 eV.
  The width will be adjusted in iteration number     2 of the first full s.c.f. cycle only.
  S.C.F. convergence parameters will be adjusted in iteration number     2 of the first full s.c.f. cycle only.
  No accuracy for occupation numbers given. Defaulting to  0.1000E-12.
  No threshold value for occupation numbers given. Defaulting to  0.0000E+00.
  No accuracy for fermi level given. Defaulting to  0.1000E-19.
  Maximum # of iterations to find E_F not set. Defaulting to  200.
  Preferred method for the eigenvalue solver ('KS_method') not specified in 'control.in'.
  Defaulting to serial version, LAPACK (via ELSI), since more k-points than CPUs available.
  Will not use alltoall communication since running on < 1024 CPUs.
  Threshold for basis singularities not set.
  Default threshold for basis singularities:  0.1000E-04
  partition_type (choice of integration weights) for integrals was not specified.
  | Using a version of the partition function of Stratmann and coworkers ('stratmann_sparse').
  | At each grid point, the set of atoms used to build the partition table is smoothly restricted to
  | only those atoms whose free-atom density would be non-zero at that grid point.
  Partitioning for Hartree potential was not defined. Using partition_type for integrals.
  | Adjusted default value of keyword multip_moments_threshold to:       0.10000000E-11
  | This value may affect high angular momentum components of the Hartree potential in periodic systems.
  Angular momentum expansion for Kerker preconditioner not set explicitly.
  | Using default value of   0
  No explicit requirement for turning off preconditioner.
  | By default, it will be turned off when the charge convergence reaches
  | sc_accuracy_rho  =   0.100000E-05
  No special mixing parameter while Kerker preconditioner is on.
  Using default: charge_mix_param =     0.0500.
  No q(lm)/r^(l+1) cutoff set for long-range Hartree potential.
  | Using default value of  0.100000E-09 .
  | Verify using the multipole_threshold keyword.
  Defaulting to new monopole extrapolation.
  Density update method: automatic selection selected.
  Using density matrix based charge density update.
  Using density matrix based charge density update.
  Using packed matrix style: index .
  Defaulting to use time-reversal symmetry for k-point grid.
  Charge integration errors on the 3D integration grid will be compensated
  by explicit normalization and distribution of residual charges.
  Use the "compensate_multipole_errors" flag to change this behaviour.
  Set 'collect_eigenvectors' to be '.true.' for all serial calculations. This is mandatory.
  Set 'collect_eigenvectors' to be '.true.' for KS_method lapack_fast and serial.

  Consistency checks for the contents of geometry.in are next.


  Range separation radius for Ewald summation (hartree_convergence_parameter):      5.00000000 bohr.
  Number of empty states per atom not set in control.in - providing a guess from actual geometry.
  | Total number of empty states used during s.c.f. cycle:       17
  If you use a very high smearing, use empty_states (per atom!) in control.in to increase this value.

  Structure-dependent array size parameters: 
  | Maximum number of distinct radial functions  :       27
  | Maximum number of basis functions            :      117
  | Number of Kohn-Sham states (occupied + empty):       72
------------------------------------------------------------

------------------------------------------------------------
          Preparing all fixed parts of the calculation.
------------------------------------------------------------
  Determining machine precision:
     2.2250738585072014E-308
  Setting up grids for atomic and cluster calculations.

  Creating wave function, potential, and density for free atoms.

  Species: Mo

  List of occupied orbitals and eigenvalues:
    n    l              occ      energy [Ha]    energy [eV]
    1    0           2.0000      -745.344654    -20281.8600
    2    0           2.0000      -103.288246     -2810.6162
    3    0           2.0000       -17.516687      -476.6533
    4    0           2.0000        -2.358559       -64.1796
    5    0           1.0000        -0.145159        -3.9500
    2    1           6.0000       -92.308627     -2511.8455
    3    1           6.0000       -13.936005      -379.2180
    4    1           6.0000        -1.408138       -38.3174
    3    2          10.0000        -8.119011      -220.9295
    4    2           5.0000        -0.132984        -3.6187


  Species: Se

  List of occupied orbitals and eigenvalues:
    n    l              occ      energy [Ha]    energy [eV]
    1    0           2.0000      -466.337810    -12689.6975
    2    0           2.0000       -59.202598     -1610.9847
    3    0           2.0000        -7.847116      -213.5309
    4    0           2.0000        -0.634372       -17.2621
    2    1           6.0000       -52.061107     -1416.6548
    3    1           6.0000        -5.620941      -152.9536
    4    1           4.0000        -0.238469        -6.4891
    3    2          10.0000        -1.951949       -53.1152


  Adding cutoff potential to free-atom effective potential.
  Creating fixed part of basis set: Ionic, confined, hydrogenic.

  Mo                   ion:

  List of free ionic orbitals and eigenvalues:
    n    l      energy [Ha]    energy [eV]
    1    0      -746.048685    -20301.0176
    2    0      -103.980912     -2829.4646
    3    0       -18.206601      -495.4268
    4    0        -3.040545       -82.7374
    2    1       -93.001013     -2530.6863
    3    1       -14.625827      -397.9890
    4    1        -2.084855       -56.7318
    3    2        -8.808854      -239.7011
    4    2        -0.765435       -20.8285


  List of ionic basis orbitals and eigenvalues:
    n    l      energy [Ha]    energy [eV]    outer radius [A]
    5    1        -0.465587       -12.6693       5.456393
    5    0        -0.650331       -17.6964       5.390095


  Mo                   hydrogenic:

  List of hydrogenic basis orbitals: 
    n    l      effective z      eigenvalue [eV]  inner max. [A]     outer max. [A]     outer radius [A]   
    4    3         8.400000       -60.0010           1.009788           1.009788           4.487018
    3    2         2.800000       -11.8048           1.687401           1.687401           5.456393
    5    4        12.000000       -78.3687           1.100005           1.100005           4.432498


  Se                   ion:

  List of free ionic orbitals and eigenvalues:
    n    l      energy [Ha]    energy [eV]
    1    0      -467.261007    -12714.8189
    2    0       -60.104893     -1635.5374
    3    0        -8.743714      -237.9286
    4    0        -1.414053       -38.4783
    2    1       -52.964156     -1441.2280
    3    1        -6.516916      -177.3343
    4    1        -0.961869       -26.1738
    3    2        -2.844511       -77.4031


  List of ionic basis orbitals and eigenvalues:
    n    l      energy [Ha]    energy [eV]    outer radius [A]
    4    0        -1.414046       -38.4782       4.083166


  Se                   hydrogenic:

  List of hydrogenic basis orbitals: 
    n    l      effective z      eigenvalue [eV]  inner max. [A]     outer max. [A]     outer radius [A]   
    3    2         4.300000       -27.9518           1.103845           1.103845           5.278265
    2    1         1.600000        -8.6828           1.326010           1.326010           5.475439
    4    3         7.200000       -44.0822           1.173422           1.173422           4.965294

  Creating atomic-like basis functions for current effective potential.

  Species Mo                  :

  List of atomic basis orbitals and eigenvalues:
    n    l      energy [Ha]    energy [eV]    outer radius [A]
    1    0      -745.344654    -20281.8600       0.247552
    2    0      -103.288246     -2810.6162       0.682864
    3    0       -17.516687      -476.6533       1.626637
    4    0        -2.358559       -64.1796       4.220963
    5    0        -0.145159        -3.9500       5.456393
    2    1       -92.308627     -2511.8455       0.699766
    3    1       -13.936005      -379.2180       1.793761
    4    1        -1.408138       -38.3174       4.828511
    3    2        -8.119011      -220.9295       2.181285
    4    2        -0.132984        -3.6187       5.390095


  Species Se                  :

  List of atomic basis orbitals and eigenvalues:
    n    l      energy [Ha]    energy [eV]    outer radius [A]
    1    0      -466.337810    -12689.6975       0.309561
    2    0       -59.202598     -1610.9847       0.885812
    3    0        -7.847116      -213.5309       2.355489
    4    0        -0.634372       -17.2621       5.214131
    2    1       -52.061107     -1416.6548       0.907737
    3    1        -5.620941      -152.9536       2.694529
    4    1        -0.238469        -6.4891       5.408909
    3    2        -1.951949       -53.1152       4.083166

  Assembling full basis from fixed parts.
  | Species Mo :   atomic orbital   1 s accepted.
  | Species Mo :   atomic orbital   2 s accepted.
  | Species Mo :   atomic orbital   3 s accepted.
  | Species Mo :   atomic orbital   4 s accepted.
  | Species Mo :    ionic orbital   5 s accepted.
  | Species Mo :   atomic orbital   5 s accepted.
  | Species Mo :   atomic orbital   2 p accepted.
  | Species Mo :   atomic orbital   3 p accepted.
  | Species Mo :   atomic orbital   4 p accepted.
  | Species Mo :    ionic orbital   5 p accepted.
  | Species Mo :   atomic orbital   3 d accepted.
  | Species Mo :   atomic orbital   4 d accepted.
  | Species Mo :    hydro orbital   3 d accepted.
  | Species Mo :    hydro orbital   4 f accepted.
  | Species Mo :    hydro orbital   5 g accepted.
  | Species Se :   atomic orbital   1 s accepted.
  | Species Se :   atomic orbital   2 s accepted.
  | Species Se :   atomic orbital   3 s accepted.
  | Species Se :    ionic orbital   4 s accepted.
  | Species Se :   atomic orbital   4 s accepted.
  | Species Se :   atomic orbital   2 p accepted.
  | Species Se :   atomic orbital   3 p accepted.
  | Species Se :   atomic orbital   4 p accepted.
  | Species Se :    hydro orbital   2 p accepted.
  | Species Se :   atomic orbital   3 d accepted.
  | Species Se :    hydro orbital   3 d accepted.
  | Species Se :    hydro orbital   4 f accepted.

  Basis size parameters after reduction:
  | Total number of radial functions:       27
  | Total number of basis functions :      117

  Per-task memory consumption for arrays in subroutine allocate_ext:
  |           9.929984MB.
  Testing on-site integration grid accuracy.
  |  Species  Function  <phi|h_atom|phi> (log., in eV)  <phi|h_atom|phi> (rad., in eV)
           1        1             -20281.8599610543             -20281.8584300616
           1        2              -2810.6161812280              -2810.6161551921
           1        3               -476.6533163555               -476.6533136395
           1        4                -64.1796433667                -64.1796426456
           1        5                 -3.3691762756                 -3.3691802887
           1        6                  4.4704608512                  4.4699102345
           1        7              -2511.8455406046              -2511.8455385741
           1        8               -379.2179896350               -379.2179882338
           1        9                -38.3173891619                -38.3173886619
           1       10                  0.2493245095                  0.2492931069
           1       11               -220.9295301098               -220.9295297081
           1       12                 -3.6195697699                 -3.6195754704
           1       13                  7.1428000922                  7.1426882355
           1       14                 23.3975871087                 23.3975871819
           1       15                 50.2449608881                 50.2449608586
           2       16             -12689.6974611609             -12689.6967666984
           2       17              -1610.9846578580              -1610.9846472470
           2       18               -213.5308789869               -213.5308777267
           2       19                -17.0464428502                -17.0464426496
           2       20                  6.7356859379                  6.7356842047
           2       21              -1416.6548010133              -1416.6548002108
           2       22               -152.9535734377               -152.9535727493
           2       23                 -6.4896265677                 -6.4896303794
           2       24                  5.2703037283                  5.2701679583
           2       25                -53.1152220964                -53.1152219035
           2       26                  7.6186674138                  7.6186665630
           2       27                 23.1072799052                 23.1072803137

  Preparing densities etc. for the partition functions (integrals / Hartree potential).

  Preparations completed.
  max(cpu_time)          :      0.844 s.
  Wall clock time (cpu1) :      1.065 s.
------------------------------------------------------------

------------------------------------------------------------
          Begin self-consistency loop: Initialization.

          Date     :  20201121, Time     :  225927.170
------------------------------------------------------------

  Initializing index lists of integration centers etc. from given atomic structure:
  Mapping all atomic coordinates to central unit cell.

  Initializing the k-points
  Using symmetry for reducing the k-points
  | k-points reduced from:      144 to       74
  | Number of k-points                             :        74
  The eigenvectors in the calculations are COMPLEX.
  | K-points in task   0:        37
  | K-points in task   1:        37
  | Number of basis functions in the Hamiltonian integrals :      1630
  | Number of basis functions in a single unit cell        :       117
  | Number of centers in hartree potential         :       357
  | Number of centers in hartree multipole         :       195
  | Number of centers in electron density summation:       144
  | Number of centers in basis integrals           :       165
  | Number of centers in integrals                 :        63
  | Number of centers in hamiltonian               :       144
  | Consuming         69 KiB for k_phase.
  | Number of super-cells (origin) [n_cells]                     :         675
  | Number of super-cells (after PM_index) [n_cells]             :          60
  | Number of super-cells in hamiltonian [n_cells_in_hamiltonian]:          60
  | Size of matrix packed + index [n_hamiltonian_matrix_size] :      168971
  | Estimated reciprocal-space cutoff momentum G_max:         1.90186217 bohr^-1 .
  | Reciprocal lattice points for long-range Hartree potential:     660
  Partitioning the integration grid into batches with parallel hashing+maxmin method.
  | Number of batches:      996
  | Maximal batch size:     192
  | Minimal batch size:      89
  | Average batch size:      95.878
  | Standard deviation of batch sizes:      15.529

  Integration load balanced across     2 MPI tasks.
  Work distribution over tasks is as follows:
  Task     0 has      47696 integration points.
  Task     1 has      47798 integration points.
  Initializing partition tables, free-atom densities, potentials, etc. across the integration grid (initialize_grid_storage).
  | initialize_grid_storage: Actual outermost partition radius vs. multipole_radius_free
  | (-- VB: in principle, multipole_radius_free should be larger, hence this output)
  | Species        1: Confinement radius =              6.000000000000000 AA, multipole_radius_free =              6.016994434057369 AA.
  | Species        1: outer_partition_radius set to              6.016994434057369 AA .
  | Species        2: Confinement radius =              6.000000000000000 AA, multipole_radius_free =              6.037996416842453 AA.
  | Species        2: outer_partition_radius set to              6.037996416842453 AA .
  | The sparse table of interatomic distances needs        258.93 kbyte instead of       217.80 kbyte of memory.
  | Using the partition_type stratmann_smoother will reduce your memory usage.
  | Net number of integration points:    95494
  | of which are non-zero points    :    81394
  | Numerical average free-atom electrostatic potential    :     -1.24348920 eV
  Renormalizing the initial density to the exact electron count on the 3D integration grid.
  | Initial density: Formal number of electrons (from input files) :     110.0000000000
  | Integrated number of electrons on 3D grid     :     109.9999278187
  | Charge integration error                      :      -0.0000721813
  | Normalization factor for density and gradient :       1.0000006562
  Renormalizing the free-atom superposition density to the exact electron count on the 3D integration grid.
  | Formal number of electrons (from input files) :     110.0000000000
  | Integrated number of electrons on 3D grid     :     109.9999278187
  | Charge integration error                      :      -0.0000721813
  | Normalization factor for density and gradient :       1.0000006562
  Obtaining max. number of non-zero basis functions in each batch (get_n_compute_maxes).
  | Maximal number of non-zero basis functions:      945 in task     0
  | Maximal number of non-zero basis functions:      946 in task     1
  Allocating        4.756 MB for KS_eigenvector_complex
  Integrating Hamiltonian matrix: batch-based integration.
  Time summed over all CPUs for integration: real work        8.975 s, elapsed        8.984 s
  Integrating overlap matrix.
  Time summed over all CPUs for integration: real work        5.738 s, elapsed        5.748 s
  Decreasing sparse matrix size:
  | Tolerance:  0.1000E-12
  Hamiltonian matrix
  | Array has   134009 nonzero elements out of   168971 elements
  | Sparsity factor is 0.207
  Overlap matrix
  | Array has   122029 nonzero elements out of   168971 elements
  | Sparsity factor is 0.278
  New size of hamiltonian matrix:      135365

  Updating Kohn-Sham eigenvalues and eigenvectors using ELSI and the (modified) LAPACK eigensolver.
  Singularity check in k-point 2, task 0 (analysis for other k-points/tasks may follow below):
  Overlap matrix is not singular
  | Lowest and highest eigenvalues :  0.2620E-02,  0.8676E+01
  Finished singularity check of overlap matrix
  | Time :     0.031 s
  Starting LAPACK eigensolver
  Finished Cholesky decomposition
  | Time :     0.006 s
  Finished transformation to standard eigenproblem
  | Time :     0.001 s
  Finished solving standard eigenproblem
  | Time :     0.009 s
  Finished back-transformation of eigenvectors
  | Time :     0.000 s

  Obtaining occupation numbers and chemical potential using ELSI.
  | Chemical potential (Fermi level):    -4.00366886 eV
  Writing Kohn-Sham eigenvalues.
  K-point:       1 at    0.000000    0.000000    0.000000 (in units of recip. lattice)

  State    Occupation    Eigenvalue [Ha]    Eigenvalue [eV]
      1       2.00000        -745.361555       -20282.31986
      2       2.00000        -466.361068       -12690.33035
      3       2.00000        -466.361068       -12690.33035
      4       2.00000        -103.305660        -2811.09004
      5       2.00000         -92.326027        -2512.31903
      6       2.00000         -92.326026        -2512.31900
      7       2.00000         -92.326026        -2512.31900
      8       2.00000         -59.226389        -1611.63203
      9       2.00000         -59.226389        -1611.63203
     10       2.00000         -52.084881        -1417.30173
     11       2.00000         -52.084881        -1417.30173
     12       2.00000         -52.084831        -1417.30035
     13       2.00000         -52.084831        -1417.30035
     14       2.00000         -52.084831        -1417.30035
     15       2.00000         -52.084831        -1417.30035
     16       2.00000         -17.535668         -477.16979
     17       2.00000         -13.955058         -379.73646
     18       2.00000         -13.955039         -379.73593
     19       2.00000         -13.955039         -379.73593
     20       2.00000          -8.138021         -221.44681
     21       2.00000          -8.138021         -221.44681
     22       2.00000          -8.137986         -221.44587
     23       2.00000          -8.137986         -221.44587
     24       2.00000          -8.137985         -221.44584
     25       2.00000          -7.873543         -214.25001
     26       2.00000          -7.873543         -214.25001
     27       2.00000          -5.648007         -153.69010
     28       2.00000          -5.648007         -153.69009
     29       2.00000          -5.647410         -153.67384
     30       2.00000          -5.647410         -153.67384
     31       2.00000          -5.647410         -153.67384
     32       2.00000          -5.647410         -153.67384
     33       2.00000          -2.392031          -65.09047
     34       2.00000          -1.979942          -53.87697
     35       2.00000          -1.979942          -53.87697
     36       2.00000          -1.979901          -53.87586
     37       2.00000          -1.979901          -53.87586
     38       2.00000          -1.979899          -53.87579
     39       2.00000          -1.979814          -53.87348
     40       2.00000          -1.979185          -53.85636
     41       2.00000          -1.979185          -53.85636
     42       2.00000          -1.979179          -53.85619
     43       2.00000          -1.979179          -53.85619
     44       2.00000          -1.451660          -39.50167
     45       2.00000          -1.442830          -39.26141
     46       2.00000          -1.442830          -39.26141
     47       2.00000          -0.764055          -20.79100
     48       2.00000          -0.723260          -19.68090
     49       2.00000          -0.430280          -11.70850
     50       2.00000          -0.299725           -8.15592
     51       2.00000          -0.295836           -8.05011
     52       2.00000          -0.295836           -8.05010
     53       2.00000          -0.257789           -7.01481
     54       2.00000          -0.257789           -7.01479
     55       2.00000          -0.213896           -5.82040
     56       0.00000          -0.108977           -2.96541
     57       0.00000          -0.108976           -2.96539
     58       0.00000          -0.101052           -2.74976
     59       0.00000          -0.101051           -2.74974
     60       0.00000          -0.018057           -0.49137
     61       0.00000           0.067081            1.82537
     62       0.00000           0.068376            1.86061
     63       0.00000           0.099181            2.69886
     64       0.00000           0.192007            5.22477
     65       0.00000           0.192009            5.22482
     66       0.00000           0.246199            6.69941
     67       0.00000           0.281472            7.65924
     68       0.00000           0.281475            7.65932
     69       0.00000           0.390510           10.62632
     70       0.00000           0.403252           10.97306
     71       0.00000           0.425141           11.56867
     72       0.00000           0.425141           11.56868

  What follows are estimated values for band gap, HOMO, LUMO, etc.
  | They are estimated on a discrete k-point grid and not necessarily exact.
  | For converged numbers, create a DOS and/or band structure plot on a denser k-grid.

  Highest occupied state (VBM) at     -5.53363867 eV (relative to internal zero)
  | Occupation number:      2.00000000
  | K-point:      38 at    0.333333    0.333333    0.000000 (in units of recip. lattice)

  Lowest unoccupied state (CBM) at    -3.95876214 eV (relative to internal zero)
  | Occupation number:      0.00000000
  | K-point:      19 at    0.166667    0.166667    0.000000 (in units of recip. lattice)

  ESTIMATED overall HOMO-LUMO gap:      1.57487653 eV between HOMO at k-point 38 and LUMO at k-point 19
  | This appears to be an indirect band gap.
  | Smallest direct gap :      1.67420502 eV for k_point 38 at    0.333333    0.333333    0.000000 (in units of recip. lattice)
  The gap value is above 0.2 eV. Unless you are using a very sparse k-point grid,
  this system is most likely an insulator or a semiconductor.
  Calculating total energy contributions from superposition of free atom densities.

  Total energy components:
  | Sum of eigenvalues            :       -5338.55056585 Ha     -145269.35212012 eV
  | XC energy correction          :        -300.84183149 Ha       -8186.32275023 eV
  | XC potential correction       :         391.73618195 Ha       10659.68386947 eV
  | Free-atom electrostatic energy:       -3731.41117125 Ha     -101536.86410835 eV
  | Hartree energy correction     :          -0.00000000 Ha          -0.00000000 eV
  | Entropy correction            :          -0.00000000 Ha          -0.00000000 eV
  | ---------------------------
  | Total energy                  :       -8979.06738664 Ha     -244332.85510923 eV
  | Total energy, T -> 0          :       -8979.06738664 Ha     -244332.85510923 eV  <-- do not rely on this value for anything but (periodic) metals
  | Electronic free energy        :       -8979.06738664 Ha     -244332.85510923 eV

  Derived energy quantities:
  | Kinetic energy                :        9207.23044533 Ha      250541.48782806 eV
  | Electrostatic energy          :      -17885.45600049 Ha     -486688.02018707 eV
  | Energy correction for multipole
  | error in Hartree potential    :           0.00000000 Ha           0.00000000 eV
  | Sum of eigenvalues per atom                           :      -48423.11737337 eV
  | Total energy (T->0) per atom                          :      -81444.28503641 eV  <-- do not rely on this value for anything but (periodic) metals
  | Electronic free energy per atom                       :      -81444.28503641 eV
  Initialize hartree_potential_storage
  Max. number of atoms included in rho_multipole:            3

  End scf initialization - timings             :  max(cpu_time)    wall_clock(cpu1)
  | Time for scf. initialization               :       26.094 s          27.103 s
  | Boundary condition initialization          :       16.641 s          17.460 s
  | Integration                                :        7.359 s           7.406 s
  | Solution of K.-S. eqns.                    :        0.250 s           0.310 s
  | Grid partitioning                          :        0.375 s           0.384 s
  | Preloading free-atom quantities on grid    :        1.281 s           1.297 s
  | Free-atom superposition energy             :        0.188 s           0.199 s
  | Total energy evaluation                    :        0.000 s           0.010 s

  Partial memory accounting:
  | Current value for overall tracked memory usage:
  |   Minimum:        7.339 MB (on task 0)
  |   Maximum:        7.339 MB (on task 0)
  |   Average:        7.339 MB
  | Peak value for overall tracked memory usage:
  |   Minimum:       18.967 MB (on task 0 after allocating wave)
  |   Maximum:       18.986 MB (on task 1 after allocating wave)
  |   Average:       18.977 MB
  | Largest tracked array allocation so far:
  |   Minimum:        6.813 MB (hamiltonian_shell on task 0)
  |   Maximum:        6.828 MB (hamiltonian_shell on task 1)
  |   Average:        6.820 MB
  Note:  These values currently only include a subset of arrays which are explicitly tracked.
  The "true" memory usage will be greater.
------------------------------------------------------------

------------------------------------------------------------
          Begin self-consistency iteration #    1

  Date     :  20201121, Time     :  225954.277
------------------------------------------------------------
  Evaluating new KS density using the density matrix
  Evaluating density matrix
  Time summed over all CPUs for getting density from density matrix: real work       17.664 s, elapsed       17.738 s
  Integration grid: deviation in total charge (<rho> - N_e) =   8.952838E-12
  Pulay mixing of updated and previous charge densities.
  Renormalizing the density to the exact electron count on the 3D integration grid.
  | Formal number of electrons (from input files) :     110.0000000000
  | Integrated number of electrons on 3D grid     :     109.9998306157
  | Charge integration error                      :      -0.0001693843
  | Normalization factor for density and gradient :       1.0000015399

  Evaluating partitioned Hartree potential by multipole expansion.
  | Original multipole sum: apparent total charge =  -0.375086E-12
  | Sum of charges compensated after spline to logarithmic grids =   0.326714E-07
  | Analytical far-field extrapolation by fixed multipoles:
  | Hartree multipole sum: apparent total charge =  -0.375123E-12
  Summing up the Hartree potential.
  Time summed over all CPUs for potential: real work        5.847 s, elapsed        5.847 s
  | RMS charge density error from multipole expansion :   0.221069E-03
  | Average real-space part of the electrostatic potential :     -0.00034610 eV

  Integrating Hamiltonian matrix: batch-based integration.
  Time summed over all CPUs for integration: real work        8.918 s, elapsed        8.952 s

  Updating Kohn-Sham eigenvalues and eigenvectors using ELSI and the (modified) LAPACK eigensolver.
  Starting LAPACK eigensolver
  Finished Cholesky decomposition
  | Time :     0.000 s
  Finished transformation to standard eigenproblem
  | Time :     0.001 s
  Finished solving standard eigenproblem
  | Time :     0.002 s
  Finished back-transformation of eigenvectors
  | Time :     0.001 s

  Obtaining occupation numbers and chemical potential using ELSI.
  | Chemical potential (Fermi level):    -4.03965600 eV
  Writing Kohn-Sham eigenvalues.
  K-point:       1 at    0.000000    0.000000    0.000000 (in units of recip. lattice)

  State    Occupation    Eigenvalue [Ha]    Eigenvalue [eV]
      1       2.00000        -745.375605       -20282.70218
      2       2.00000        -466.355821       -12690.18756
      3       2.00000        -466.355821       -12690.18756
      4       2.00000        -103.319646        -2811.47062
      5       2.00000         -92.340109        -2512.70220
      6       2.00000         -92.340105        -2512.70210
      7       2.00000         -92.340105        -2512.70210
      8       2.00000         -59.221676        -1611.50380
      9       2.00000         -59.221676        -1611.50380
     10       2.00000         -52.080078        -1417.17102
     11       2.00000         -52.080078        -1417.17102
     12       2.00000         -52.080059        -1417.17051
     13       2.00000         -52.080059        -1417.17051
     14       2.00000         -52.080059        -1417.17051
     15       2.00000         -52.080059        -1417.17051
     16       2.00000         -17.547302         -477.48638
     17       2.00000         -13.966710         -380.05351
     18       2.00000         -13.966667         -380.05233
     19       2.00000         -13.966666         -380.05233
     20       2.00000          -8.149866         -221.76914
     21       2.00000          -8.149866         -221.76914
     22       2.00000          -8.149808         -221.76757
     23       2.00000          -8.149802         -221.76739
     24       2.00000          -8.149802         -221.76739
     25       2.00000          -7.869384         -214.13683
     26       2.00000          -7.869384         -214.13683
     27       2.00000          -5.643771         -153.57482
     28       2.00000          -5.643770         -153.57481
     29       2.00000          -5.643299         -153.56197
     30       2.00000          -5.643299         -153.56197
     31       2.00000          -5.643298         -153.56196
     32       2.00000          -5.643298         -153.56196
     33       2.00000          -2.399538          -65.29474
     34       2.00000          -1.975797          -53.76418
     35       2.00000          -1.975797          -53.76418
     36       2.00000          -1.975756          -53.76305
     37       2.00000          -1.975756          -53.76304
     38       2.00000          -1.975716          -53.76196
     39       2.00000          -1.975630          -53.75963
     40       2.00000          -1.975119          -53.74573
     41       2.00000          -1.975119          -53.74573
     42       2.00000          -1.975113          -53.74556
     43       2.00000          -1.975113          -53.74556
     44       2.00000          -1.458129          -39.67771
     45       2.00000          -1.449480          -39.44237
     46       2.00000          -1.449480          -39.44237
     47       2.00000          -0.761523          -20.72210
     48       2.00000          -0.720720          -19.61178
     49       2.00000          -0.429114          -11.67680
     50       2.00000          -0.297642           -8.09924
     51       2.00000          -0.296270           -8.06191
     52       2.00000          -0.296269           -8.06190
     53       2.00000          -0.257978           -7.01995
     54       2.00000          -0.257978           -7.01993
     55       2.00000          -0.215589           -5.86647
     56       0.00000          -0.109290           -2.97394
     57       0.00000          -0.109289           -2.97392
     58       0.00000          -0.100955           -2.74712
     59       0.00000          -0.100954           -2.74711
     60       0.00000          -0.016910           -0.46013
     61       0.00000           0.067898            1.84759
     62       0.00000           0.069362            1.88745
     63       0.00000           0.101166            2.75286
     64       0.00000           0.193258            5.25883
     65       0.00000           0.193260            5.25888
     66       0.00000           0.246667            6.71215
     67       0.00000           0.282699            7.69263
     68       0.00000           0.282702            7.69271
     69       0.00000           0.391696           10.65859
     70       0.00000           0.404747           11.01372
     71       0.00000           0.426101           11.59479
     72       0.00000           0.426102           11.59483

  What follows are estimated values for band gap, HOMO, LUMO, etc.
  | They are estimated on a discrete k-point grid and not necessarily exact.
  | For converged numbers, create a DOS and/or band structure plot on a denser k-grid.

  Highest occupied state (VBM) at     -5.58874252 eV (relative to internal zero)
  | Occupation number:      2.00000000
  | K-point:      38 at    0.333333    0.333333    0.000000 (in units of recip. lattice)

  Lowest unoccupied state (CBM) at    -3.99475107 eV (relative to internal zero)
  | Occupation number:      0.00000000
  | K-point:      19 at    0.166667    0.166667    0.000000 (in units of recip. lattice)

  ESTIMATED overall HOMO-LUMO gap:      1.59399146 eV between HOMO at k-point 38 and LUMO at k-point 19
  | This appears to be an indirect band gap.
  | Smallest direct gap :      1.64768849 eV for k_point 38 at    0.333333    0.333333    0.000000 (in units of recip. lattice)
  The gap value is above 0.2 eV. Unless you are using a very sparse k-point grid,
  this system is most likely an insulator or a semiconductor.

  Total energy components:
  | Sum of eigenvalues            :       -5338.68914014 Ha     -145273.12291844 eV
  | XC energy correction          :        -300.83078740 Ha       -8186.02222536 eV
  | XC potential correction       :         391.72182515 Ha       10659.29320133 eV
  | Free-atom electrostatic energy:       -3731.41117125 Ha     -101536.86410835 eV
  | Hartree energy correction     :           0.14936665 Ha           4.06447335 eV
  | Entropy correction            :          -0.00000000 Ha          -0.00000000 eV
  | ---------------------------
  | Total energy                  :       -8979.05990698 Ha     -244332.65157747 eV
  | Total energy, T -> 0          :       -8979.05990698 Ha     -244332.65157747 eV  <-- do not rely on this value for anything but (periodic) metals
  | Electronic free energy        :       -8979.05990698 Ha     -244332.65157747 eV

  Derived energy quantities:
  | Kinetic energy                :        9207.15523485 Ha      250539.44124663 eV
  | Electrostatic energy          :      -17885.38435443 Ha     -486686.07059874 eV
  | Energy correction for multipole
  | error in Hartree potential    :          -0.00002670 Ha          -0.00072664 eV
  | Sum of eigenvalues per atom                           :      -48424.37430615 eV
  | Total energy (T->0) per atom                          :      -81444.21719249 eV  <-- do not rely on this value for anything but (periodic) metals
  | Electronic free energy per atom                       :      -81444.21719249 eV

  Self-consistency convergence accuracy:
  | Change of charge density      :  0.2289E+00
  | Change of sum of eigenvalues  : -0.3771E+01 eV
  | Change of total energy        :  0.2035E+00 eV

  End self-consistency iteration #     1       :  max(cpu_time)    wall_clock(cpu1)
  | Time for this iteration                    :       17.234 s          17.298 s
  | Charge density update                      :        8.938 s           8.935 s
  | Density mixing & preconditioning           :        0.672 s           0.669 s
  | Hartree multipole update                   :        0.000 s           0.021 s
  | Hartree multipole summation                :        2.953 s           2.971 s
  | Integration                                :        4.453 s           4.482 s
  | Solution of K.-S. eqns.                    :        0.219 s           0.214 s
  | Total energy evaluation                    :        0.000 s           0.001 s

  Partial memory accounting:
  | Current value for overall tracked memory usage:
  |   Minimum:        7.339 MB (on task 0)
  |   Maximum:        7.339 MB (on task 0)
  |   Average:        7.339 MB
  | Peak value for overall tracked memory usage:
  |   Minimum:       23.490 MB (on task 0 after allocating gradient_basis_wave)
  |   Maximum:       23.514 MB (on task 1 after allocating gradient_basis_wave)
  |   Average:       23.502 MB
  | Largest tracked array allocation so far:
  |   Minimum:        6.813 MB (hamiltonian_shell on task 0)
  |   Maximum:        6.828 MB (hamiltonian_shell on task 1)
  |   Average:        6.820 MB
  Note:  These values currently only include a subset of arrays which are explicitly tracked.
  The "true" memory usage will be greater.
------------------------------------------------------------

------------------------------------------------------------
          Begin self-consistency iteration #    2

  Date     :  20201121, Time     :  230011.576
------------------------------------------------------------
  Evaluating new KS density using the density matrix
  Evaluating density matrix
  Time summed over all CPUs for getting density from density matrix: real work       18.348 s, elapsed       18.395 s
  Integration grid: deviation in total charge (<rho> - N_e) =   9.379164E-12
  Pulay mixing of updated and previous charge densities.
  Renormalizing the density to the exact electron count on the 3D integration grid.
  | Formal number of electrons (from input files) :     110.0000000000
  | Integrated number of electrons on 3D grid     :     109.9985707450
  | Charge integration error                      :      -0.0014292550
  | Normalization factor for density and gradient :       1.0000129934

  Evaluating partitioned Hartree potential by multipole expansion.
  | Original multipole sum: apparent total charge =  -0.956299E-12
  | Sum of charges compensated after spline to logarithmic grids =   0.414958E-07
  | Analytical far-field extrapolation by fixed multipoles:
  | Hartree multipole sum: apparent total charge =  -0.956077E-12
  Summing up the Hartree potential.
  Time summed over all CPUs for potential: real work        6.474 s, elapsed        6.561 s
  | RMS charge density error from multipole expansion :   0.198191E-02
  | Average real-space part of the electrostatic potential :     -0.00282072 eV

  Integrating Hamiltonian matrix: batch-based integration.
  Time summed over all CPUs for integration: real work        8.361 s, elapsed        8.376 s

  Updating Kohn-Sham eigenvalues and eigenvectors using ELSI and the (modified) LAPACK eigensolver.
  Starting LAPACK eigensolver
  Finished Cholesky decomposition
  | Time :     0.000 s
  Finished transformation to standard eigenproblem
  | Time :     0.002 s
  Finished solving standard eigenproblem
  | Time :     0.002 s
  Finished back-transformation of eigenvectors
  | Time :     0.001 s

  Obtaining occupation numbers and chemical potential using ELSI.
  | Chemical potential (Fermi level):    -4.49774556 eV
  What follows are estimated values for band gap, HOMO, LUMO, etc.
  | They are estimated on a discrete k-point grid and not necessarily exact.
  | For converged numbers, create a DOS and/or band structure plot on a denser k-grid.

  Highest occupied state (VBM) at     -5.91990322 eV (relative to internal zero)
  | Occupation number:      2.00000000
  | K-point:      38 at    0.333333    0.333333    0.000000 (in units of recip. lattice)

  Lowest unoccupied state (CBM) at    -4.45403126 eV (relative to internal zero)
  | Occupation number:      0.00000000
  | K-point:      38 at    0.333333    0.333333    0.000000 (in units of recip. lattice)

  ESTIMATED overall HOMO-LUMO gap:      1.46587196 eV between HOMO at k-point 38 and LUMO at k-point 38
  | This appears to be a direct band gap.
  The gap value is above 0.2 eV. Unless you are using a very sparse k-point grid,
  this system is most likely an insulator or a semiconductor.

  Checking to see if s.c.f. parameters should be adjusted.
  The system likely has a gap. Increased the default Pulay mixing parameter (charge_mix_param). Value:   0.200000 .
  Kept the default occupation width. Value:   0.010000 eV.

  Total energy components:
  | Sum of eigenvalues            :       -5339.44139252 Ha     -145293.59274719 eV
  | XC energy correction          :        -300.74966155 Ha       -8183.81467865 eV
  | XC potential correction       :         391.61599447 Ha       10656.41340189 eV
  | Free-atom electrostatic energy:       -3731.41117125 Ha     -101536.86410835 eV
  | Hartree energy correction     :           0.95228076 Ha          25.91287785 eV
  | Entropy correction            :          -0.00000000 Ha          -0.00000000 eV
  | ---------------------------
  | Total energy                  :       -8979.03395009 Ha     -244331.94525444 eV
  | Total energy, T -> 0          :       -8979.03395009 Ha     -244331.94525444 eV  <-- do not rely on this value for anything but (periodic) metals
  | Electronic free energy        :       -8979.03395009 Ha     -244331.94525444 eV

  Derived energy quantities:
  | Kinetic energy                :        9206.56558258 Ha      250523.39599217 eV
  | Electrostatic energy          :      -17884.84987113 Ha     -486671.52656797 eV
  | Energy correction for multipole
  | error in Hartree potential    :          -0.00024859 Ha          -0.00676441 eV
  | Sum of eigenvalues per atom                           :      -48431.19758240 eV
  | Total energy (T->0) per atom                          :      -81443.98175148 eV  <-- do not rely on this value for anything but (periodic) metals
  | Electronic free energy per atom                       :      -81443.98175148 eV

  Self-consistency convergence accuracy:
  | Change of charge density      :  0.2049E+00
  | Change of sum of eigenvalues  : -0.2047E+02 eV
  | Change of total energy        :  0.7063E+00 eV

  End self-consistency iteration #     2       :  max(cpu_time)    wall_clock(cpu1)
  | Time for this iteration                    :       17.688 s          17.709 s
  | Charge density update                      :        9.234 s           9.253 s
  | Density mixing & preconditioning           :        0.734 s           0.738 s
  | Hartree multipole update                   :        0.016 s           0.008 s
  | Hartree multipole summation                :        3.297 s           3.310 s
  | Integration                                :        4.203 s           4.195 s
  | Solution of K.-S. eqns.                    :        0.203 s           0.201 s
  | Total energy evaluation                    :        0.000 s           0.001 s

  Partial memory accounting:
  | Current value for overall tracked memory usage:
  |   Minimum:        7.339 MB (on task 0)
  |   Maximum:        7.339 MB (on task 0)
  |   Average:        7.339 MB
  | Peak value for overall tracked memory usage:
  |   Minimum:       23.490 MB (on task 0 after allocating gradient_basis_wave)
  |   Maximum:       23.514 MB (on task 1 after allocating gradient_basis_wave)
  |   Average:       23.502 MB
  | Largest tracked array allocation so far:
  |   Minimum:        6.813 MB (hamiltonian_shell on task 0)
  |   Maximum:        6.828 MB (hamiltonian_shell on task 1)
  |   Average:        6.820 MB
  Note:  These values currently only include a subset of arrays which are explicitly tracked.
  The "true" memory usage will be greater.
------------------------------------------------------------

------------------------------------------------------------
          Begin self-consistency iteration #    3

  Date     :  20201121, Time     :  230029.287
------------------------------------------------------------
  Evaluating new KS density using the density matrix
  Evaluating density matrix
  Time summed over all CPUs for getting density from density matrix: real work       17.573 s, elapsed       17.636 s
  Integration grid: deviation in total charge (<rho> - N_e) =   8.711254E-12
  Pulay mixing of updated and previous charge densities.
  Renormalizing the density to the exact electron count on the 3D integration grid.
  | Formal number of electrons (from input files) :     110.0000000000
  | Integrated number of electrons on 3D grid     :     109.9993722010
  | Charge integration error                      :      -0.0006277990
  | Normalization factor for density and gradient :       1.0000057073

  Evaluating partitioned Hartree potential by multipole expansion.
  | Original multipole sum: apparent total charge =  -0.215759E-12
  | Sum of charges compensated after spline to logarithmic grids =   0.475673E-07
  | Analytical far-field extrapolation by fixed multipoles:
  | Hartree multipole sum: apparent total charge =  -0.215753E-12
  Summing up the Hartree potential.
  Time summed over all CPUs for potential: real work        6.407 s, elapsed        6.423 s
  | RMS charge density error from multipole expansion :   0.215992E-02
  | Average real-space part of the electrostatic potential :      0.00092367 eV

  Integrating Hamiltonian matrix: batch-based integration.
  Time summed over all CPUs for integration: real work        8.869 s, elapsed        8.895 s

  Updating Kohn-Sham eigenvalues and eigenvectors using ELSI and the (modified) LAPACK eigensolver.
  Starting LAPACK eigensolver
  Finished Cholesky decomposition
  | Time :     0.001 s
  Finished transformation to standard eigenproblem
  | Time :     0.001 s
  Finished solving standard eigenproblem
  | Time :     0.003 s
  Finished back-transformation of eigenvectors
  | Time :     0.000 s

  Obtaining occupation numbers and chemical potential using ELSI.
  | Chemical potential (Fermi level):    -3.27616109 eV
  What follows are estimated values for band gap, HOMO, LUMO, etc.
  | They are estimated on a discrete k-point grid and not necessarily exact.
  | For converged numbers, create a DOS and/or band structure plot on a denser k-grid.

  Highest occupied state (VBM) at     -4.66912233 eV (relative to internal zero)
  | Occupation number:      2.00000000
  | K-point:      38 at    0.333333    0.333333    0.000000 (in units of recip. lattice)

  Lowest unoccupied state (CBM) at    -3.23125701 eV (relative to internal zero)
  | Occupation number:      0.00000000
  | K-point:      23 at    0.166667    0.666667    0.000000 (in units of recip. lattice)

  ESTIMATED overall HOMO-LUMO gap:      1.43786533 eV between HOMO at k-point 38 and LUMO at k-point 23
  | This appears to be an indirect band gap.
  | Smallest direct gap :      1.63440415 eV for k_point 38 at    0.333333    0.333333    0.000000 (in units of recip. lattice)
  The gap value is above 0.2 eV. Unless you are using a very sparse k-point grid,
  this system is most likely an insulator or a semiconductor.

  Total energy components:
  | Sum of eigenvalues            :       -5335.85575166 Ha     -145196.02249488 eV
  | XC energy correction          :        -300.80128719 Ha       -8185.21948392 eV
  | XC potential correction       :         391.68286879 Ha       10658.23314472 eV
  | Free-atom electrostatic energy:       -3731.41117125 Ha     -101536.86410835 eV
  | Hartree energy correction     :          -2.66581234 Ha         -72.54044452 eV
  | Entropy correction            :          -0.00000000 Ha          -0.00000000 eV
  | ---------------------------
  | Total energy                  :       -8979.05115364 Ha     -244332.41338695 eV
  | Total energy, T -> 0          :       -8979.05115364 Ha     -244332.41338695 eV  <-- do not rely on this value for anything but (periodic) metals
  | Electronic free energy        :       -8979.05115364 Ha     -244332.41338695 eV

  Derived energy quantities:
  | Kinetic energy                :        9207.23092196 Ha      250541.50079767 eV
  | Electrostatic energy          :      -17885.48078841 Ha     -486688.69470070 eV
  | Energy correction for multipole
  | error in Hartree potential    :          -0.00025575 Ha          -0.00695934 eV
  | Sum of eigenvalues per atom                           :      -48398.67416496 eV
  | Total energy (T->0) per atom                          :      -81444.13779565 eV  <-- do not rely on this value for anything but (periodic) metals
  | Electronic free energy per atom                       :      -81444.13779565 eV

  Self-consistency convergence accuracy:
  | Change of charge density      :  0.6810E-01
  | Change of sum of eigenvalues  :  0.9757E+02 eV
  | Change of total energy        : -0.4681E+00 eV

  End self-consistency iteration #     3       :  max(cpu_time)    wall_clock(cpu1)
  | Time for this iteration                    :       17.422 s          17.447 s
  | Charge density update                      :        8.844 s           8.866 s
  | Density mixing & preconditioning           :        0.672 s           0.657 s
  | Hartree multipole update                   :        0.000 s           0.010 s
  | Hartree multipole summation                :        3.250 s           3.243 s
  | Integration                                :        4.453 s           4.456 s
  | Solution of K.-S. eqns.                    :        0.219 s           0.212 s
  | Total energy evaluation                    :        0.000 s           0.001 s

  Partial memory accounting:
  | Current value for overall tracked memory usage:
  |   Minimum:        7.339 MB (on task 0)
  |   Maximum:        7.339 MB (on task 0)
  |   Average:        7.339 MB
  | Peak value for overall tracked memory usage:
  |   Minimum:       23.491 MB (on task 0 after allocating gradient_basis_wave)
  |   Maximum:       23.514 MB (on task 1 after allocating gradient_basis_wave)
  |   Average:       23.503 MB
  | Largest tracked array allocation so far:
  |   Minimum:        6.813 MB (hamiltonian_shell on task 0)
  |   Maximum:        6.828 MB (hamiltonian_shell on task 1)
  |   Average:        6.820 MB
  Note:  These values currently only include a subset of arrays which are explicitly tracked.
  The "true" memory usage will be greater.
------------------------------------------------------------

------------------------------------------------------------
          Begin self-consistency iteration #    4

  Date     :  20201121, Time     :  230046.736
------------------------------------------------------------
  Evaluating new KS density using the density matrix
  Evaluating density matrix
  Time summed over all CPUs for getting density from density matrix: real work       17.881 s, elapsed       17.928 s
  Integration grid: deviation in total charge (<rho> - N_e) =   8.839152E-12
  Pulay mixing of updated and previous charge densities.
  Renormalizing the density to the exact electron count on the 3D integration grid.
  | Formal number of electrons (from input files) :     110.0000000000
  | Integrated number of electrons on 3D grid     :     109.9992351758
  | Charge integration error                      :      -0.0007648242
  | Normalization factor for density and gradient :       1.0000069530

  Evaluating partitioned Hartree potential by multipole expansion.
  | Original multipole sum: apparent total charge =  -0.468784E-12
  | Sum of charges compensated after spline to logarithmic grids =   0.495618E-07
  | Analytical far-field extrapolation by fixed multipoles:
  | Hartree multipole sum: apparent total charge =  -0.468513E-12
  Summing up the Hartree potential.
  Time summed over all CPUs for potential: real work        6.467 s, elapsed        6.548 s
  | RMS charge density error from multipole expansion :   0.328013E-02
  | Average real-space part of the electrostatic potential :     -0.00004203 eV

  Integrating Hamiltonian matrix: batch-based integration.
  Time summed over all CPUs for integration: real work        8.836 s, elapsed        8.853 s

  Updating Kohn-Sham eigenvalues and eigenvectors using ELSI and the (modified) LAPACK eigensolver.
  Starting LAPACK eigensolver
  Finished Cholesky decomposition
  | Time :     0.000 s
  Finished transformation to standard eigenproblem
  | Time :     0.001 s
  Finished solving standard eigenproblem
  | Time :     0.003 s
  Finished back-transformation of eigenvectors
  | Time :     0.000 s

  Obtaining occupation numbers and chemical potential using ELSI.
  | Chemical potential (Fermi level):    -3.51718909 eV
  What follows are estimated values for band gap, HOMO, LUMO, etc.
  | They are estimated on a discrete k-point grid and not necessarily exact.
  | For converged numbers, create a DOS and/or band structure plot on a denser k-grid.

  Highest occupied state (VBM) at     -5.01234666 eV (relative to internal zero)
  | Occupation number:      2.00000000
  | K-point:      38 at    0.333333    0.333333    0.000000 (in units of recip. lattice)

  Lowest unoccupied state (CBM) at    -3.47349000 eV (relative to internal zero)
  | Occupation number:      0.00000000
  | K-point:      38 at    0.333333    0.333333    0.000000 (in units of recip. lattice)

  ESTIMATED overall HOMO-LUMO gap:      1.53885666 eV between HOMO at k-point 38 and LUMO at k-point 38
  | This appears to be a direct band gap.
  The gap value is above 0.2 eV. Unless you are using a very sparse k-point grid,
  this system is most likely an insulator or a semiconductor.

  Total energy components:
  | Sum of eigenvalues            :       -5336.80760402 Ha     -145221.92371541 eV
  | XC energy correction          :        -300.75710200 Ha       -8184.01714353 eV
  | XC potential correction       :         391.62461358 Ha       10656.64793972 eV
  | Free-atom electrostatic energy:       -3731.41117125 Ha     -101536.86410835 eV
  | Hartree energy correction     :          -1.68279375 Ha         -45.79114784 eV
  | Entropy correction            :          -0.00000000 Ha          -0.00000000 eV
  | ---------------------------
  | Total energy                  :       -8979.03405743 Ha     -244331.94817541 eV
  | Total energy, T -> 0          :       -8979.03405743 Ha     -244331.94817541 eV  <-- do not rely on this value for anything but (periodic) metals
  | Electronic free energy        :       -8979.03405743 Ha     -244331.94817541 eV

  Derived energy quantities:
  | Kinetic energy                :        9206.91529754 Ha      250532.91222033 eV
  | Electrostatic energy          :      -17885.19225298 Ha     -486680.84325221 eV
  | Energy correction for multipole
  | error in Hartree potential    :          -0.00038659 Ha          -0.01051958 eV
  | Sum of eigenvalues per atom                           :      -48407.30790514 eV
  | Total energy (T->0) per atom                          :      -81443.98272514 eV  <-- do not rely on this value for anything but (periodic) metals
  | Electronic free energy per atom                       :      -81443.98272514 eV

  Self-consistency convergence accuracy:
  | Change of charge density      :  0.1646E+00
  | Change of sum of eigenvalues  : -0.2590E+02 eV
  | Change of total energy        :  0.4652E+00 eV

  End self-consistency iteration #     4       :  max(cpu_time)    wall_clock(cpu1)
  | Time for this iteration                    :       17.609 s          17.647 s
  | Charge density update                      :        9.000 s           9.014 s
  | Density mixing & preconditioning           :        0.672 s           0.675 s
[...]
  | RMS charge density error from multipole expansion :   0.390161E-02
  | Average real-space part of the electrostatic potential :     -0.00127910 eV

  Integrating Hamiltonian matrix: batch-based integration.
  Time summed over all CPUs for integration: real work        8.491 s, elapsed        8.510 s

  Updating Kohn-Sham eigenvalues and eigenvectors using ELSI and the (modified) LAPACK eigensolver.
  Starting LAPACK eigensolver
  Finished Cholesky decomposition
  | Time :     0.001 s
  Finished transformation to standard eigenproblem
  | Time :     0.001 s
  Finished solving standard eigenproblem
  | Time :     0.003 s
  Finished back-transformation of eigenvectors
  | Time :     0.000 s

  Obtaining occupation numbers and chemical potential using ELSI.
  | Chemical potential (Fermi level):    -3.92966415 eV
  What follows are estimated values for band gap, HOMO, LUMO, etc.
  | They are estimated on a discrete k-point grid and not necessarily exact.
  | For converged numbers, create a DOS and/or band structure plot on a denser k-grid.

  Highest occupied state (VBM) at     -5.39549486 eV (relative to internal zero)
  | Occupation number:      2.00000000
  | K-point:      38 at    0.333333    0.333333    0.000000 (in units of recip. lattice)

  Lowest unoccupied state (CBM) at    -3.88595231 eV (relative to internal zero)
  | Occupation number:      0.00000000
  | K-point:      38 at    0.333333    0.333333    0.000000 (in units of recip. lattice)

  ESTIMATED overall HOMO-LUMO gap:      1.50954255 eV between HOMO at k-point 38 and LUMO at k-point 38
  | This appears to be a direct band gap.
  The gap value is above 0.2 eV. Unless you are using a very sparse k-point grid,
  this system is most likely an insulator or a semiconductor.

  Total energy components:
  | Sum of eigenvalues            :       -5338.04713167 Ha     -145255.65297899 eV
  | XC energy correction          :        -300.73827333 Ha       -8183.50478953 eV
  | XC potential correction       :         391.59842076 Ha       10655.93519682 eV
  | Free-atom electrostatic energy:       -3731.41117125 Ha     -101536.86410835 eV
  | Hartree energy correction     :          -0.43365283 Ha         -11.80029379 eV
  | Entropy correction            :          -0.00000000 Ha          -0.00000000 eV
  | ---------------------------
  | Total energy                  :       -8979.03180832 Ha     -244331.88697384 eV
  | Total energy, T -> 0          :       -8979.03180832 Ha     -244331.88697384 eV  <-- do not rely on this value for anything but (periodic) metals
  | Electronic free energy        :       -8979.03180832 Ha     -244331.88697384 eV

  Derived energy quantities:
  | Kinetic energy                :        9206.82938057 Ha      250530.57430053 eV
  | Electrostatic energy          :      -17885.12291555 Ha     -486678.95648484 eV
  | Energy correction for multipole
  | error in Hartree potential    :          -0.00047207 Ha          -0.01284562 eV
  | Sum of eigenvalues per atom                           :      -48418.55099300 eV
  | Total energy (T->0) per atom                          :      -81443.96232461 eV  <-- do not rely on this value for anything but (periodic) metals
  | Electronic free energy per atom                       :      -81443.96232461 eV

  Self-consistency convergence accuracy:
  | Change of charge density      :  0.8471E-06
  | Change of sum of eigenvalues  :  0.7149E-03 eV
  | Change of total energy        : -0.4009E-08 eV

  Preliminary charge convergence reached. Turning off preconditioner.

  Writing Kohn-Sham eigenvalues.
  K-point:       1 at    0.000000    0.000000    0.000000 (in units of recip. lattice)

  State    Occupation    Eigenvalue [Ha]    Eigenvalue [eV]
      1       2.00000        -745.426354       -20284.08314
      2       2.00000        -466.320611       -12689.22946
      3       2.00000        -466.320611       -12689.22946
      4       2.00000        -103.379809        -2813.10772
      5       2.00000         -92.399693        -2514.32358
      6       2.00000         -92.399479        -2514.31776
      7       2.00000         -92.399479        -2514.31776
      8       2.00000         -59.187484        -1610.57338
      9       2.00000         -59.187484        -1610.57338
     10       2.00000         -52.045974        -1416.24302
     11       2.00000         -52.045974        -1416.24302
     12       2.00000         -52.045974        -1416.24302
     13       2.00000         -52.045974        -1416.24302
     14       2.00000         -52.045263        -1416.22366
     15       2.00000         -52.045263        -1416.22366
     16       2.00000         -17.602634         -478.99203
     17       2.00000         -14.022624         -381.57502
     18       2.00000         -14.021599         -381.54712
     19       2.00000         -14.021599         -381.54712
     20       2.00000          -8.206343         -223.30595
     21       2.00000          -8.206343         -223.30595
     22       2.00000          -8.206143         -223.30052
     23       2.00000          -8.205428         -223.28106
     24       2.00000          -8.205428         -223.28106
     25       2.00000          -7.834462         -213.18655
     26       2.00000          -7.834462         -213.18655
     27       2.00000          -5.609111         -152.63167
     28       2.00000          -5.609111         -152.63167
     29       2.00000          -5.609111         -152.63167
     30       2.00000          -5.609111         -152.63167
     31       2.00000          -5.606819         -152.56931
     32       2.00000          -5.606819         -152.56931
     33       2.00000          -2.434286          -66.24029
     34       2.00000          -1.941078          -52.81941
     35       2.00000          -1.941077          -52.81941
     36       2.00000          -1.941064          -52.81903
     37       2.00000          -1.941064          -52.81903
     38       2.00000          -1.939477          -52.77585
     39       2.00000          -1.939477          -52.77585
     40       2.00000          -1.939440          -52.77485
     41       2.00000          -1.939440          -52.77485
     42       2.00000          -1.938840          -52.75852
     43       2.00000          -1.938758          -52.75628
     44       2.00000          -1.484295          -40.38973
     45       2.00000          -1.477327          -40.20011
     46       2.00000          -1.477326          -40.20010
     47       2.00000          -0.723729          -19.69368
     48       2.00000          -0.685379          -18.65010
     49       2.00000          -0.399681          -10.87587
     50       2.00000          -0.278229           -7.57101
     51       2.00000          -0.278229           -7.57098
     52       2.00000          -0.266579           -7.25399
     53       2.00000          -0.241273           -6.56536
     54       2.00000          -0.241272           -6.56535
     55       2.00000          -0.208922           -5.68504
     56       0.00000          -0.090613           -2.46571
     57       0.00000          -0.090612           -2.46569
     58       0.00000          -0.081336           -2.21326
     59       0.00000          -0.081336           -2.21326
     60       0.00000           0.009709            0.26420
     61       0.00000           0.083284            2.26627
     62       0.00000           0.089099            2.42452
     63       0.00000           0.134589            3.66234
     64       0.00000           0.220800            6.00827
     65       0.00000           0.220800            6.00829
     66       0.00000           0.266886            7.26234
     67       0.00000           0.308046            8.38235
     68       0.00000           0.308047            8.38238
     69       0.00000           0.420231           11.43506
     70       0.00000           0.435416           11.84828
     71       0.00000           0.446980           12.16293
     72       0.00000           0.446980           12.16295

  What follows are estimated values for band gap, HOMO, LUMO, etc.
  | They are estimated on a discrete k-point grid and not necessarily exact.
  | For converged numbers, create a DOS and/or band structure plot on a denser k-grid.

  Highest occupied state (VBM) at     -5.39549486 eV (relative to internal zero)
  | Occupation number:      2.00000000
  | K-point:      38 at    0.333333    0.333333    0.000000 (in units of recip. lattice)

  Lowest unoccupied state (CBM) at    -3.88595231 eV (relative to internal zero)
  | Occupation number:      0.00000000
  | K-point:      38 at    0.333333    0.333333    0.000000 (in units of recip. lattice)

  ESTIMATED overall HOMO-LUMO gap:      1.50954255 eV between HOMO at k-point 38 and LUMO at k-point 38
  | This appears to be a direct band gap.
  The gap value is above 0.2 eV. Unless you are using a very sparse k-point grid,
  this system is most likely an insulator or a semiconductor.

  Self-consistency cycle converged.

  End self-consistency iteration #    18       :  max(cpu_time)    wall_clock(cpu1)
  | Time for this iteration                    :       17.875 s          17.882 s
  | Charge density update                      :        9.109 s           9.109 s
  | Density mixing                             :        0.688 s           0.692 s
  | Hartree multipole update                   :        0.016 s           0.012 s
  | Hartree multipole summation                :        3.609 s           3.604 s
  | Integration                                :        4.250 s           4.262 s
  | Solution of K.-S. eqns.                    :        0.203 s           0.198 s
  | Total energy evaluation                    :        0.000 s           0.000 s

  Partial memory accounting:
  | Current value for overall tracked memory usage:
  |   Minimum:        7.339 MB (on task 0)
  |   Maximum:        7.339 MB (on task 0)
  |   Average:        7.339 MB
  | Peak value for overall tracked memory usage:
  |   Minimum:       23.491 MB (on task 0 after allocating gradient_basis_wave)
  |   Maximum:       23.514 MB (on task 1 after allocating gradient_basis_wave)
  |   Average:       23.503 MB
  | Largest tracked array allocation so far:
  |   Minimum:        6.813 MB (hamiltonian_shell on task 0)
  |   Maximum:        6.828 MB (hamiltonian_shell on task 1)
  |   Average:        6.820 MB
  Note:  These values currently only include a subset of arrays which are explicitly tracked.
  The "true" memory usage will be greater.
------------------------------------------------------------

  Energy and forces in a compact form:
  | Total energy uncorrected      :         -0.244331886973842E+06 eV
  | Total energy corrected        :         -0.244331886973842E+06 eV  <-- do not rely on this value for anything but (periodic) metals
  | Electronic free energy        :         -0.244331886973842E+06 eV

  ------------------------------------ 
  Start decomposition of the XC Energy 
  ------------------------------------ 
  X and C from original XC functional choice 
  Hartree-Fock Energy :          0.000000000 Ha              0.000000000 eV
  X Energy            :       -295.177521448 Ha          -8032.189031888 eV
  C Energy            :         -5.560751885 Ha           -151.315757644 eV
  Total XC Energy     :       -300.738273333 Ha          -8183.504789532 eV
  ------------------------------------ 
  LDA X and C from self-consistent density 
  X Energy LDA        :       -280.065047741 Ha          -7620.957699079 eV
  C Energy LDA        :        -10.069739198 Ha           -274.011545135 eV
  ------------------------------------ 
  End decomposition of the XC Energy 
  ------------------------------------ 

------------------------------------------------------------
 Output mulliken decomposition of band k points in LAPACK

  -------------------------------------------------------------------
  Writing the requested band Mulliken decomposition output (LAPACK version):
  -------------------------------------------------------------------

  Integrating Hamiltonian matrix: batch-based integration.
  Time summed over all CPUs for integration: real work        8.707 s, elapsed        8.723 s

  Treating all   51 k-points in band plot segment #   1:

  Overlap matrix is not singular
  | Lowest and highest eigenvalues :  0.3759E-02,  0.8880E+01
  Finished singularity check of overlap matrix
  | Time :     0.002 s
  Starting LAPACK eigensolver
  Finished Cholesky decomposition
  | Time :     0.000 s
  Finished transformation to standard eigenproblem
  | Time :     0.002 s
  Finished solving standard eigenproblem
  | Time :     0.002 s
  Finished back-transformation of eigenvectors
  | Time :     0.001 s
  Performing scalar-relativistic Mulliken charge analysis on all atoms.
 n_atoms, n_states, n_spin,n_k_points           3          72           1          51
  Allocating        0.420 MB for mulliken_decomp

  Treating all   51 k-points in band plot segment #   2:

  Performing scalar-relativistic Mulliken charge analysis on all atoms.
 n_atoms, n_states, n_spin,n_k_points           3          72           1          51
  Allocating        0.420 MB for mulliken_decomp

  Treating all   51 k-points in band plot segment #   3:

  Performing scalar-relativistic Mulliken charge analysis on all atoms.
 n_atoms, n_states, n_spin,n_k_points           3          72           1          51
  Allocating        0.420 MB for mulliken_decomp

------------------------------------------------------------------------------
  Final output of selected total energy values:

  The following output summarizes some interesting total energy values
  at the end of a run (AFTER all relaxation, molecular dynamics, etc.).

  | Total energy of the DFT / Hartree-Fock s.c.f. calculation      :        -244331.886973842 eV
  | Final zero-broadening corrected energy (caution - metals only) :        -244331.886973842 eV
  | For reference only, the value of 1 Hartree used in FHI-aims is :             27.211384500 eV
  | For reference only, the overall average (free atom contribution
  | + realspace contribution) of the electrostatic potential after
  | s.c.f. convergence is                                          :             -1.244768304 eV

  Before relying on these values, please be sure to understand exactly which
  total energy value is referred to by a given number. Different objects may
  all carry the same name 'total energy'. Definitions:

  Total energy of the DFT / Hartree-Fock s.c.f. calculation:
  | Note that this energy does not include ANY quantities calculated after the
  | s.c.f. cycle, in particular not ANY RPA, MP2, etc. many-body perturbation terms.

  Final zero-broadening corrected energy:
  | For metallic systems only, a broadening of the occupation numbers at the Fermi
  | level can be extrapolated back to zero broadening by an electron-gas inspired
  | formula. For all systems that are not real metals, this value can be
  | meaningless and should be avoided.

------------------------------------------------------------------------------
  Methods described in the following list of references were used in this FHI-aims run.
  If you publish the results, please make sure to cite these reference if they apply.
  FHI-aims is an academic code, and for our developers (often, Ph.D. students
  and postdocs), scientific credit in the community is essential.
  Thank you for helping us!

  For any use of FHI-aims, please cite:

    Volker Blum, Ralf Gehrke, Felix Hanke, Paula Havu, Ville Havu,
    Xinguo Ren, Karsten Reuter, and Matthias Scheffler
    'Ab initio molecular simulations with numeric atom-centered orbitals'
    Computer Physics Communications 180, 2175-2196 (2009)
    http://dx.doi.org/10.1016/j.cpc.2009.06.022


  The provided symmetry information was generated with SPGlib:

    Atsushi Togo, Yusuke Seto, Dimitar Pashov
    SPGlib 1.7.3 obtained from http://spglib.sourceforge.net
    Copyright (C) 2008 Atsushi Togo


  The ELSI infrastructure was used in your run to solve the Kohn-Sham electronic structure.
  Please check out http://elsi-interchange.org to learn more.
  If scalability is important for your project, please acknowledge ELSI by citing:

    V. W-z. Yu, F. Corsetti, A. Garcia, W. P. Huhn, M. Jacquelin, W. Jia,
    B. Lange, L. Lin, J. Lu, W. Mi, A. Seifitokaldani, A. Vazquez-Mayagoitia,
    C. Yang, H. Yang, and V. Blum
    'ELSI: A unified software interface for Kohn-Sham electronic structure solvers'
    Computer Physics Communications 222, 267-285 (2018).
    http://dx.doi.org/10.1016/j.cpc.2017.09.007


  For the real-space grid partitioning and parallelization used in this calculation, please cite:

    Ville Havu, Volker Blum, Paula Havu, and Matthias Scheffler,
    'Efficient O(N) integration for all-electron electronic structure calculation'
    'using numerically tabulated basis functions'
    Journal of Computational Physics 228, 8367-8379 (2009).
    http://dx.doi.org/10.1016/j.jcp.2009.08.008

  Of course, there are many other important community references, e.g., those cited in the
  above references. Our list is limited to references that describe implementations in the
  FHI-aims code. The reason is purely practical (length of this list) - please credit others as well.

------------------------------------------------------------
          Leaving FHI-aims.
          Date     :  20201121, Time     :  230529.013

          Computational steps:
          | Number of self-consistency cycles          :           18
          | Number of SCF (re)initializations          :            1

          Detailed time accounting                     :  max(cpu_time)    wall_clock(cpu1)
          | Total time                                 :      360.516 s         362.954 s
          | Preparation time                           :        0.844 s           1.065 s
          | Boundary condition initalization           :       16.641 s          17.460 s
          | Grid partitioning                          :        0.375 s           0.384 s
          | Preloading free-atom quantities on grid    :        1.281 s           1.297 s
          | Free-atom superposition energy             :        0.188 s           0.199 s
          | Total time for integrations                :       85.984 s          86.203 s
          | Total time for solution of K.-S. equations :        4.062 s           4.106 s
          | Total time for density update              :      165.172 s         165.395 s
          | Total time for mixing & preconditioning    :       12.609 s          12.708 s
          | Total time for Hartree multipole update    :        0.188 s           0.181 s
          | Total time for Hartree multipole sum       :       61.844 s          61.925 s
          | Total time for total energy evaluation     :        0.000 s           0.026 s
          | Total time for scaled ZORA corrections     :        0.000 s           0.000 s

          Partial memory accounting:
          | Residual value for overall tracked memory usage across tasks:     0.679565 MB (should be 0.000000 MB)
          |
          | Largest tracked array allocation:
          |   Minimum:        6.813 MB (hamiltonian_shell on task 0)
          |   Maximum:        6.828 MB (hamiltonian_shell on task 1)
          |   Average:        6.820 MB
          |
          | Because the residual tracked memory usage was not zero, the peak value for overall
          | tracked memory usage was not output, as it is probably incorrect.  This is likely due
          | to a missing aims_deallocate statement in the source code, which should be otherwise
          | harmless.
          |
          Note:  These values currently only include a subset of arrays which are explicitly tracked.
          The "true" memory usage will be greater.

          Have a nice day.
------------------------------------------------------------
