------------------------------------------------------------
          Invoking FHI-aims ...

          When using FHI-aims, please cite the following reference:

          Volker Blum, Ralf Gehrke, Felix Hanke, Paula Havu,
          Ville Havu, Xinguo Ren, Karsten Reuter, and Matthias Scheffler,
          'Ab Initio Molecular Simulations with Numeric Atom-Centered Orbitals',
          Computer Physics Communications 180, 2175-2196 (2009)

          For any questions about FHI-aims, please visit the aimsclub website
          with its forums and wiki. Contributions to both the forums and the
          wiki are warmly encouraged - they are for you, and everyone is welcome there.

------------------------------------------------------------



  Date     :  20200319, Time     :  194129.047
  Time zero on CPU 1             :   0.125358000000000E+00  s.
  Internal wall clock time zero  :           353878889.047  s.

  FHI-aims created a unique identifier for this run for later identification
  aims_uuid : 92045BCA-23EE-4F07-A38F-D9FBA52E70B1

  Build configuration of the current instance of FHI-aims
  -------------------------------------------------------
  FHI-aims version      : 200112
  Commit number         : 23daeca3f
  CMake host system     : Linux-3.10.0-693.21.1.el7.x86_64
  CMake version         : 3.13.3
  Fortran compiler      : /sw/installed/impi/2018.4.274-iccifort-2019.1.144-GCC-8.2.0-2.31.1/bin64/mpiifort (Intel) version 19.0.0.20181018
  Fortran compiler flags: -O3 -ip -fp-model precise
  C compiler            : /sw/installed/impi/2018.4.274-iccifort-2019.1.144-GCC-8.2.0-2.31.1/bin64/mpiicc (Intel) version 19.0.0.20181018
  C compiler flags      : -O3 -ip -fp-model precise
  Architecture          :
  Using MPI
  Using Scalapack
  Using C files
  Using LibXC
  Using SPGlib
  Using i-PI
  Using RLSY
  Linking against: /sw/installed/imkl/2019.1.144-iimpi-2019a/mkl/lib/intel64/libmkl_intel_lp64.so
                   /sw/installed/imkl/2019.1.144-iimpi-2019a/mkl/lib/intel64/libmkl_sequential.so
                   /sw/installed/imkl/2019.1.144-iimpi-2019a/mkl/lib/intel64/libmkl_core.so
                   /sw/installed/imkl/2019.1.144-iimpi-2019a/mkl/lib/intel64/libmkl_blacs_intelmpi_lp64.so
                   /sw/installed/imkl/2019.1.144-iimpi-2019a/mkl/lib/intel64/libmkl_scalapack_lp64.so

  Using       24 parallel tasks.
  Task        0 on host taurusi6507.taurus.hrsk.tu-dresden.de reporting.
  Task        1 on host taurusi6507.taurus.hrsk.tu-dresden.de reporting.
  Task        2 on host taurusi6507.taurus.hrsk.tu-dresden.de reporting.
  Task        3 on host taurusi6507.taurus.hrsk.tu-dresden.de reporting.
  Task        4 on host taurusi6507.taurus.hrsk.tu-dresden.de reporting.
  Task        5 on host taurusi6507.taurus.hrsk.tu-dresden.de reporting.
  Task        6 on host taurusi6507.taurus.hrsk.tu-dresden.de reporting.
  Task        7 on host taurusi6507.taurus.hrsk.tu-dresden.de reporting.
  Task        8 on host taurusi6507.taurus.hrsk.tu-dresden.de reporting.
  Task        9 on host taurusi6507.taurus.hrsk.tu-dresden.de reporting.
  Task       10 on host taurusi6507.taurus.hrsk.tu-dresden.de reporting.
  Task       11 on host taurusi6507.taurus.hrsk.tu-dresden.de reporting.
  Task       12 on host taurusi6507.taurus.hrsk.tu-dresden.de reporting.
  Task       13 on host taurusi6507.taurus.hrsk.tu-dresden.de reporting.
  Task       14 on host taurusi6507.taurus.hrsk.tu-dresden.de reporting.
  Task       15 on host taurusi6507.taurus.hrsk.tu-dresden.de reporting.
  Task       16 on host taurusi6507.taurus.hrsk.tu-dresden.de reporting.
  Task       17 on host taurusi6507.taurus.hrsk.tu-dresden.de reporting.
  Task       18 on host taurusi6507.taurus.hrsk.tu-dresden.de reporting.
  Task       19 on host taurusi6507.taurus.hrsk.tu-dresden.de reporting.
  Task       20 on host taurusi6507.taurus.hrsk.tu-dresden.de reporting.
  Task       21 on host taurusi6507.taurus.hrsk.tu-dresden.de reporting.
  Task       22 on host taurusi6507.taurus.hrsk.tu-dresden.de reporting.
  Task       23 on host taurusi6507.taurus.hrsk.tu-dresden.de reporting.

  Performing system and environment tests:
  | Environment variable OMP_NUM_THREADS correctly set to 1.
  | Maximum stacksize for task 0: unlimited
  | Maximum stacksize for task 1: unlimited
  | Maximum stacksize for task 2: unlimited
  | Maximum stacksize for task 3: unlimited
  | Maximum stacksize for task 4: unlimited
  | Maximum stacksize for task 5: unlimited
  | Maximum stacksize for task 6: unlimited
  | Maximum stacksize for task 7: unlimited
  | Maximum stacksize for task 8: unlimited
  | Maximum stacksize for task 9: unlimited
  | Maximum stacksize for task 10: unlimited
  | Maximum stacksize for task 11: unlimited
  | Maximum stacksize for task 12: unlimited
  | Maximum stacksize for task 13: unlimited
  | Maximum stacksize for task 14: unlimited
  | Maximum stacksize for task 15: unlimited
  | Maximum stacksize for task 16: unlimited
  | Maximum stacksize for task 17: unlimited
  | Maximum stacksize for task 18: unlimited
  | Maximum stacksize for task 19: unlimited
  | Maximum stacksize for task 20: unlimited
  | Maximum stacksize for task 21: unlimited
  | Maximum stacksize for task 22: unlimited
  | Maximum stacksize for task 23: unlimited
  | Current stacksize for task 0: unlimited
  | Current stacksize for task 1: unlimited
  | Current stacksize for task 2: unlimited
  | Current stacksize for task 3: unlimited
  | Current stacksize for task 4: unlimited
  | Current stacksize for task 5: unlimited
  | Current stacksize for task 6: unlimited
  | Current stacksize for task 7: unlimited
  | Current stacksize for task 8: unlimited
  | Current stacksize for task 9: unlimited
  | Current stacksize for task 10: unlimited
  | Current stacksize for task 11: unlimited
  | Current stacksize for task 12: unlimited
  | Current stacksize for task 13: unlimited
  | Current stacksize for task 14: unlimited
  | Current stacksize for task 15: unlimited
  | Current stacksize for task 16: unlimited
  | Current stacksize for task 17: unlimited
  | Current stacksize for task 18: unlimited
  | Current stacksize for task 19: unlimited
  | Current stacksize for task 20: unlimited
  | Current stacksize for task 21: unlimited
  | Current stacksize for task 22: unlimited
  | Current stacksize for task 23: unlimited
  | Checking for scalapack...
  | Testing pdtran()...
  | All pdtran() tests passed.

  Obtaining array dimensions for all initial allocations:
  
  -----------------------------------------------------------------------
  Parsing control.in (first pass over file, find array dimensions only).
  The contents of control.in will be repeated verbatim below
  unless switched off by setting 'verbatim_writeout .false.' .
  in the first line of control.in .
  -----------------------------------------------------------------------
  
  #===============================================================================
  # FHI-aims file: ./control.in
  # Created using the Atomic Simulation Environment (ASE)
  # Thu Mar 19 17:13:23 2020
  #===============================================================================
  xc                                 pbe
  # include_spin_orbit
  # vdw_correction_hirshfeld
  # many_body_dispersion_nl 	 beta=0.81
  spin                               none
  k_grid 	 	 13 13 13
  relativistic                       atomic_zora scalar
  ### SCF settings
  adjust_scf 	 always 	 3
  # frozen_core_scf 	 .true.
  # charge_mix_param  0.05
  # occupation_type 	 gaussian 	 0.01
  # sc_accuracy_eev   1E-3 	 	 # sum of eigenvalues convergence
  # sc_accuracy_etot  1E-6 	 	 # total energy convergence
  # sc_accuracy_rho   1E-3 	 	 # electron density convergence
  # elsi_restart 	 read_and_write 	 1000
  #===============================================================================
  
  ################################################################################
  #
  #  FHI-aims code project
  # Volker Blum, Fritz Haber Institute Berlin, 2009
  #
  #  Suggested "tight" defaults for C atom (to be pasted into control.in file)
  #
  ################################################################################
    species        C
  #     global species definitions
      nucleus             6
      mass                12.0107
  #
      l_hartree           6
  #
      cut_pot             4.0  2.0  1.0
      basis_dep_cutoff    1e-4
  #
      radial_base         34 7.0
      radial_multiplier   2
      angular_grids specified
        division   0.2187   50
        division   0.4416  110
        division   0.6335  194
        division   0.7727  302
        division   0.8772  434
  #      division   0.9334  590
  #      division   0.9924  770
  #      division   1.0230  974
  #      division   1.5020 1202
  #     outer_grid  974
        outer_grid  434
  ################################################################################
  #
  #  Definition of "minimal" basis
  #
  ################################################################################
  #     valence basis states
      valence      2  s   2.
      valence      2  p   2.
  #     ion occupancy
      ion_occ      2  s   1.
      ion_occ      2  p   1.
  ################################################################################
  #
  #  Suggested additional basis functions. For production calculations,
  #  uncomment them one after another (the most important basis functions are
  #  listed first).
  #
  #  Constructed for dimers: 1.0 A, 1.25 A, 1.5 A, 2.0 A, 3.0 A
  #
  ################################################################################
  #  "First tier" - improvements: -1214.57 meV to -155.61 meV
       hydro 2 p 1.7
       hydro 3 d 6
       hydro 2 s 4.9
  #  "Second tier" - improvements: -67.75 meV to -5.23 meV
       hydro 4 f 9.8
       hydro 3 p 5.2
       hydro 3 s 4.3
       hydro 5 g 14.4
       hydro 3 d 6.2
  #  "Third tier" - improvements: -2.43 meV to -0.60 meV
  #     hydro 2 p 5.6
  #     hydro 2 s 1.4
  #     hydro 3 d 4.9
  #     hydro 4 f 11.2
  #  "Fourth tier" - improvements: -0.39 meV to -0.18 meV
  #     hydro 2 p 2.1
  #     hydro 5 g 16.4
  #     hydro 4 d 13.2
  #     hydro 3 s 13.6
  #     hydro 4 f 17.6
  #  Further basis functions - improvements: -0.08 meV and below
  #     hydro 3 s 2
  #     hydro 3 p 6
  #     hydro 4 d 20
  ################################################################################
  #
  # For methods that use the localized form of the "resolution of identity" for
  # the two-electron Coulomb operator (RI_method LVL), particularly Hartree-Fock and
  # hybrid density functional calculations, the highest accuracy can be obtained by
  # uncommenting the line beginning with "for_aux"  below, thus adding an extra g radial
  # function to the construction of the product basis set for the expansion.
  # See Ref. New J. Phys. 17, 093020 (2015) for more information, particularly Figs. 1 and 6.
  #
  ################################################################################
  #
  # for_aux hydro 5 g 6.0
  
  -----------------------------------------------------------------------
  Completed first pass over input file control.in .
  -----------------------------------------------------------------------
  
  
  -----------------------------------------------------------------------
  Parsing geometry.in (first pass over file, find array dimensions only).
  The contents of geometry.in will be repeated verbatim below
  unless switched off by setting 'verbatim_writeout .false.' .
  in the first line of geometry.in .
  -----------------------------------------------------------------------
  
  #=======================================================
  # FHI-aims file: ./geometry.in
  # Created using the Atomic Simulation Environment (ASE)
  # Thu Mar 19 17:13:23 2020
  #=======================================================
  lattice_vector 1.2300000000000000 -2.1304224899999999 0.0000000000000000
  lattice_vector 1.2300000000000000 2.1304224899999999 0.0000000000000000
  lattice_vector 0.0000000000000000 0.0000000000000000 6.7100000000000000
  atom_frac -0.0000000000000000 0.0000000000000000 0.2500000000000000 C
  atom_frac -0.0000000000000000 0.0000000000000000 -0.2500000000000000 C
  atom_frac 0.3333333333333333 -0.3333333333333333 0.2500000000000000 C
  atom_frac -0.3333333333333333 0.3333333333333333 -0.2500000000000000 C
  
  -----------------------------------------------------------------------
  Completed first pass over input file geometry.in .
  -----------------------------------------------------------------------
  

  Basic array size parameters:
  | Number of species                 :        1
  | Number of atoms                   :        4
  | Number of lattice vectors         :        3
  | Max. basis fn. angular momentum   :        4
  | Max. atomic/ionic basis occupied n:        2
  | Max. number of basis fn. types    :        2
  | Max. radial fns per species/type  :        8
  | Max. logarithmic grid size        :     1277
  | Max. radial integration grid size :       69
  | Max. angular integration grid size:      434
  | Max. angular grid division number :        8
  | Radial grid for Hartree potential :     1277
  | Number of spin channels           :        1

------------------------------------------------------------
          Reading file control.in.
------------------------------------------------------------
  XC: Using PBE gradient-corrected functionals.
  Spin treatment: No spin polarisation.
  Found k-point grid:        13        13        13
  Scalar relativistic treatment of kinetic energy: on-site free-atom approximation to ZORA.
  S.C.F. convergence parameters will be adjusted in iteration number     3 of each new s.c.f. cycle.
 
  Reading configuration options for species C                   .
  | Found nuclear charge :   6.0000
  | Found atomic mass :    12.0107000000000      amu
  | Found l_max for Hartree potential  :   6
  | Found cutoff potl. onset [A], width [A], scale factor :    4.00000    2.00000    1.00000
  | Threshold for basis-dependent cutoff potential is   0.100000E-03
  | Found data for basic radial integration grid :    34 points, outermost radius =    7.000 A
  | Found multiplier for basic radial grid :   2
  | Found angular grid specification: user-specified.
  | Specified grid contains     6 separate shells.
  | Check grid settings after all constraints further below.
  | Found free-atom valence shell :  2 s   2.000
  | Found free-atom valence shell :  2 p   2.000
  | No ionic wave fns used. Skipping ion_occ.
  | No ionic wave fns used. Skipping ion_occ.
  | Found hydrogenic basis function :  2 p   1.700
  | Found hydrogenic basis function :  3 d   6.000
  | Found hydrogenic basis function :  2 s   4.900
  | Found hydrogenic basis function :  4 f   9.800
  | Found hydrogenic basis function :  3 p   5.200
  | Found hydrogenic basis function :  3 s   4.300
  | Found hydrogenic basis function :  5 g  14.400
  | Found hydrogenic basis function :  3 d   6.200
  Species C                   : Missing cutoff potential type.
  Defaulting to exp(1/x)/(1-x)^2 type cutoff potential.
  Species C : No 'logarithmic' tag. Using default grid for free atom:
  | Default logarithmic grid data [bohr] : 0.1000E-03 0.1000E+03 0.1012E+01
  Species C : On-site basis accuracy parameter (for Gram-Schmidt orthonormalisation) not specified.
  Using default value basis_acc =  0.1000000E-03.
  Species C                   : Using default innermost maximum threshold i_radial=  2 for radial functions.
  Species C                   : Default cutoff onset for free atom density etc. : 0.40000000E+01 AA.
  Species C                   : Basic radial grid will be enhanced according to radial_multiplier =   2, to contain    69 grid points.
 
  Finished reading input file 'control.in'. Consistency checks are next.
 
  MPI_IN_PLACE appears to work with this MPI implementation.
  | Keeping use_mpi_in_place .true. (see manual).
  Target number of points in a grid batch is not set. Defaulting to  100
  Method for grid partitioning is not set. Defaulting to parallel hash+maxmin partitioning.
  Batch size limit is not set. Defaulting to    200
  By default, will store active basis functions for each batch.
  If in need of memory, prune_basis_once .false. can be used to disable this option.
  communication_type for Hartree potential was not specified.
  Defaulting to calc_hartree .
  Defaulting to Pulay charge density mixer.
  Pulay mixer: Number of relevant iterations not set.
  Defaulting to    8 iterations.
  Pulay mixer: Number of initial linear mixing iterations not set.
  Defaulting to    0 iterations.
  Work space size for distributed Hartree potential not set.
  Defaulting to   0.200000E+03 MB.
  Mixing parameter for charge density mixing has not been set.
  Using default: charge_mix_param =     0.0500.
  The mixing parameter will be adjusted in iteration number     3 of each s.c.f. cycle (i.e., each geometry step).
  Algorithm-dependent basis array size parameters:
  | n_max_pulay                         :        8
  Maximum number of self-consistency iterations not provided.
  Presetting  1000 iterations.
  Presetting      1001 iterations before the initial mixing cycle
  is restarted anyway using the sc_init_iter criterion / keyword.
  Presetting a factor      1.000 between actual scf density residual
  and density convergence criterion sc_accuracy_rho below which sc_init_iter
  takes no effect.
 * No s.c.f. convergence criteria (sc_accuracy_*) were provided in control.in.
 * The run will proceed with a reasonable default guess, but please check whether.
 * the s.c.f. cycles seem to take too much or too little time.
  Calculation of forces was not defined in control.in. No forces will be calculated.
  Geometry relaxation not requested: no relaxation will be performed.
 * Notice: The s.c.f. convergence criterion sc_accuracy_rho was not provided.
 * We used to stop in this case, and ask the user to provide reasonable
 * scf convergence criteria. However, this led some users to employ criteria
 * that led to extremely long run times, e.g., for simple relaxation.
 * We now preset a default value for sc_accuracy_rho if it is not set.
 * You may still wish to check if this setting is too tight or too loose for your needs.
 * Based on n_atoms, FHI-aims chose sc_accuracy_rho =  0.100000E-05 .
  No accuracy limit for integral partition fn. given. Defaulting to  0.1000E-14.
  No threshold value for u(r) in integrations given. Defaulting to  0.1000E-05.
  No occupation type (smearing scheme) given. Defaulting to Gaussian broadening, width =  0.1000E-01 eV.
  The width will be adjusted in iteration number     3 of each s.c.f. cycle (i.e., each geometry step).
  S.C.F. convergence parameters will be adjusted in iteration number     3 of the first full s.c.f. cycle only.
  No accuracy for occupation numbers given. Defaulting to  0.1000E-12.
  No threshold value for occupation numbers given. Defaulting to  0.0000E+00.
  No accuracy for fermi level given. Defaulting to  0.1000E-19.
  Maximum # of iterations to find E_F not set. Defaulting to  200.
  Preferred method for the eigenvalue solver ('KS_method') not specified in 'control.in'.
  Defaulting to serial version, LAPACK (via ELSI), since more k-points than CPUs available.
  Will not use alltoall communication since running on < 1024 CPUs.
  Threshold for basis singularities not set.
  Default threshold for basis singularities:  0.1000E-04
  partition_type (choice of integration weights) for integrals was not specified.
  | Using a version of the partition function of Stratmann and coworkers ('stratmann_sparse').
  | At each grid point, the set of atoms used to build the partition table is smoothly restricted to
  | only those atoms whose free-atom density would be non-zero at that grid point.
  Partitioning for Hartree potential was not defined. Using partition_type for integrals.
  | Adjusted default value of keyword multip_moments_threshold to:       0.10000000E-11
  | This value may affect high angular momentum components of the Hartree potential in periodic systems.
  Angular momentum expansion for Kerker preconditioner not set explicitly.
  | Using default value of   0
  No explicit requirement for turning off preconditioner.
  | By default, it will be turned off when the charge convergence reaches
  | sc_accuracy_rho  =   0.100000E-05
  No special mixing parameter while Kerker preconditioner is on.
  Using default: charge_mix_param =     0.0500.
  No q(lm)/r^(l+1) cutoff set for long-range Hartree potential.
  | Using default value of  0.100000E-09 .
  | Verify using the multipole_threshold keyword.
  Defaulting to new monopole extrapolation.
  Density update method: automatic selection selected.
  Using density matrix based charge density update.
  Using density matrix based charge density update.
  Using packed matrix style: index .
  Defaulting to use time-reversal symmetry for k-point grid.
  Charge integration errors on the 3D integration grid will be compensated
  by explicit normalization and distribution of residual charges.
  Use the "compensate_multipole_errors" flag to change this behaviour.
------------------------------------------------------------


------------------------------------------------------------
          Reading geometry description geometry.in.
------------------------------------------------------------
  Input structure read successfully.
  The structure contains        4 atoms,  and a total of         24.000 electrons.

  Input geometry:
  | Unit cell:
  |        1.23000000       -2.13042249        0.00000000
  |        1.23000000        2.13042249        0.00000000
  |        0.00000000        0.00000000        6.71000000
  | Atomic structure:
  |       Atom                x [A]            y [A]            z [A]
  |    1: Species C             0.00000000        0.00000000        1.67750000
  |    2: Species C             0.00000000        0.00000000       -1.67750000
  |    3: Species C             0.00000000       -1.42028166        1.67750000
  |    4: Species C             0.00000000        1.42028166       -1.67750000

  Lattice parameters for 3D lattice (in Angstroms) :     2.460000    2.460000    6.710000
  Angle(s) between unit vectors (in degrees)       :    90.000000   90.000000  120.000000

  | The smallest distance between any two atoms is         1.42028166 AA.
  | The first atom of this pair is atom number                      1 .
  | The second atom of this pair is atom number                     3 .
  | Wigner-Seitz cell of the first atom image           0     0     0 .
  | (The Wigner-Seitz cell of the second atom is 0 0 0  by definition.)

  Symmetry information by spglib:
  | Precision set to  0.1E-04
  | Number of Operations  : 24
  | Space group           : 194
  | International         : P6_3/mmc
  | Schoenflies           : D6h^4

  Quantities derived from the lattice vectors:
  | Reciprocal lattice vector 1:  2.554140 -1.474634  0.000000
  | Reciprocal lattice vector 2:  2.554140  1.474634  0.000000
  | Reciprocal lattice vector 3:  0.000000  0.000000  0.936391
  | Unit cell volume                               :   0.351660E+02  A^3

  Range separation radius for Ewald summation (hartree_convergence_parameter):      2.82092147 bohr.

  Fractional coordinates:
                         L1                L2                L3
       atom_frac         0.00000000        0.00000000        0.25000000  C
       atom_frac         0.00000000        0.00000000       -0.25000000  C
       atom_frac         0.33333333       -0.33333333        0.25000000  C
       atom_frac        -0.33333333        0.33333333       -0.25000000  C

  Number of empty states per atom not set in control.in - providing a guess from actual geometry.
  | Total number of empty states used during s.c.f. cycle:       12
  If you use a very high smearing, use empty_states (per atom!) in control.in to increase this value.

  Structure-dependent array size parameters: 
  | Maximum number of distinct radial functions  :       11
  | Maximum number of basis functions            :      156
  | Number of Kohn-Sham states (occupied + empty):       24
------------------------------------------------------------

------------------------------------------------------------
          Preparing all fixed parts of the calculation.
------------------------------------------------------------
  Determining machine precision:
    2.225073858507201E-308
  Setting up grids for atomic and cluster calculations.

  Creating wave function, potential, and density for free atoms.

  Species: C

  List of occupied orbitals and eigenvalues:
    n    l              occ      energy [Ha]    energy [eV]
    1    0           2.0000       -10.049212      -273.4530
    2    0           2.0000        -0.504761       -13.7352
    2    1           2.0000        -0.193631        -5.2690

  Creating fixed part of basis set: Ionic, confined, hydrogenic.
 
  C                    hydrogenic:
 
  List of hydrogenic basis orbitals: 
    n    l      effective z      eigenvalue [eV]  inner max. [A]     outer max. [A]     outer radius [A]   
    2    1         1.700000        -9.8152           1.245706           1.245706           5.401630
    3    2         6.000000       -54.4226           0.792453           0.792453           4.178599
    2    0         4.900000       -81.6681           0.082559           0.562749           3.353238
    4    3         9.800000       -81.6681           0.863254           0.863254           4.028125
    3    1         5.200000       -40.8774           0.305389           1.215618           4.898362
    3    0         4.300000       -27.9508           0.091041           1.610311           5.401630
    5    4        14.400000      -112.8510           0.917666           0.917666           3.883070
    3    2         6.200000       -58.1113           0.763917           0.763917           4.077671
 

  Adding cutoff potential to free-atom effective potential.
  Creating atomic-like basis functions for current effective potential.

  Species C                   :

  List of atomic basis orbitals and eigenvalues:
    n    l      energy [Ha]    energy [eV]    outer radius [A]
    1    0       -10.049212      -273.4530       1.934409
    2    0        -0.504761       -13.7352       5.271162
    2    1        -0.193631        -5.2690       5.401630

  Assembling full basis from fixed parts.
  | Species C :   atomic orbital   1 s accepted.
  | Species C :    hydro orbital   2 s accepted.
  | Species C :   atomic orbital   2 s accepted.
  | Species C :    hydro orbital   3 s accepted.
  | Species C :    hydro orbital   3 p accepted.
  | Species C :   atomic orbital   2 p accepted.
  | Species C :    hydro orbital   2 p accepted.
  | Species C :    hydro orbital   3 d accepted.
  | Species C :    hydro orbital   3 d accepted.
  | Species C :    hydro orbital   4 f accepted.
  | Species C :    hydro orbital   5 g accepted.
 
  Basis size parameters after reduction:
  | Total number of radial functions:       11
  | Total number of basis functions :      156
 
  Per-task memory consumption for arrays in subroutine allocate_ext:
  |           3.600012MB.
  Testing on-site integration grid accuracy.
  |  Species  Function  <phi|h_atom|phi> (log., in eV)  <phi|h_atom|phi> (rad., in eV)
           1        1               -273.4529725981               -273.4529710451
           1        2                -10.7721037329                -10.7721022102
           1        3                 17.6044132585                 17.6044162052
           1        4                 53.7706460564                 53.7706913681
           1        5                 15.0973290351                 15.0973256011
           1        6                  3.8545134677                  3.8545724657
           1        7                 12.1156992586                 12.1182024423
           1        8                 29.4352039288                 29.4352041805
           1        9                 54.8741144697                 54.8740268719
           1       10                 59.3556032036                 59.3556031370
           1       11                 93.4551837140                 93.4551837996

  Preparing densities etc. for the partition functions (integrals / Hartree potential).

  Preparations completed.
  max(cpu_time)          :      0.146 s.
  Wall clock time (cpu1) :      0.228 s.
------------------------------------------------------------

------------------------------------------------------------
          Begin self-consistency loop: Initialization.

          Date     :  20200319, Time     :  194129.750
------------------------------------------------------------

  Initializing index lists of integration centers etc. from given atomic structure:
  Mapping all atomic coordinates to central unit cell.

  Initializing the k-points
  Using symmetry for reducing the k-points
  | k-points reduced from:     2197 to     1099
  | Number of k-points                             :      1099
  The eigenvectors in the calculations are COMPLEX.
  | K-points in task   0:        45
  | K-points in task   1:        46
  | K-points in task   2:        46
  | K-points in task   3:        46
  | K-points in task   4:        46
  | K-points in task   5:        46
  | K-points in task   6:        46
  | K-points in task   7:        46
  | K-points in task   8:        46
  | K-points in task   9:        46
  | K-points in task  10:        46
  | K-points in task  11:        46
  | K-points in task  12:        46
  | K-points in task  13:        46
  | K-points in task  14:        46
  | K-points in task  15:        46
  | K-points in task  16:        46
  | K-points in task  17:        46
  | K-points in task  18:        46
  | K-points in task  19:        46
  | K-points in task  20:        45
  | K-points in task  21:        45
  | K-points in task  22:        45
  | K-points in task  23:        45
  | Number of basis functions in the Hamiltonian integrals :      7182
  | Number of basis functions in a single unit cell        :       156
  | Number of centers in hartree potential         :      1424
  | Number of centers in hartree multipole         :      1294
  | Number of centers in electron density summation:       970
  | Number of centers in basis integrals           :      1020
  | Number of centers in integrals                 :       340
  | Number of centers in hamiltonian               :       970
  | Consuming       5323 KiB for k_phase.
  | Number of super-cells (origin) [n_cells]                     :        1575
  | Number of super-cells (after PM_index) [n_cells]             :         310
  | Number of super-cells in hamiltonian [n_cells_in_hamiltonian]:         310
  | Size of matrix packed + index [n_hamiltonian_matrix_size] :     1112301
  | Estimated reciprocal-space cutoff momentum G_max:         3.55244536 bohr^-1 .
  | Reciprocal lattice points for long-range Hartree potential:     188
  Partitioning the integration grid into batches with parallel hashing+maxmin method.
  | Number of batches:     1024
  | Maximal batch size:      94
  | Minimal batch size:      58
  | Average batch size:      70.617
  | Standard deviation of batch sizes:       6.896

  Integration load balanced across    24 MPI tasks.
  Work distribution over tasks is as follows:
  Task     0 has       3022 integration points.
  Task     1 has       3029 integration points.
  Task     2 has       2982 integration points.
  Task     3 has       3017 integration points.
  Task     4 has       2996 integration points.
  Task     5 has       3035 integration points.
  Task     6 has       3005 integration points.
  Task     7 has       2981 integration points.
  Task     8 has       3041 integration points.
  Task     9 has       2988 integration points.
  Task    10 has       3003 integration points.
  Task    11 has       3044 integration points.
  Task    12 has       2997 integration points.
  Task    13 has       3021 integration points.
  Task    14 has       3032 integration points.
  Task    15 has       3040 integration points.
  Task    16 has       2988 integration points.
  Task    17 has       3024 integration points.
  Task    18 has       3000 integration points.
  Task    19 has       3005 integration points.
  Task    20 has       3031 integration points.
  Task    21 has       3014 integration points.
  Task    22 has       3035 integration points.
  Task    23 has       2982 integration points.
  Initializing partition tables, free-atom densities, potentials, etc. across the integration grid (initialize_grid_storage).
  | initialize_grid_storage: Actual outermost partition radius vs. multipole_radius_free
  | (-- VB: in principle, multipole_radius_free should be larger, hence this output)
  | Species        1: Confinement radius =              6.000000000000000 AA, multipole_radius_free =              6.029870734432609 AA.
  | Species        1: outer_partition_radius set to              6.029870734432609 AA .
  | The sparse table of interatomic distances needs       9620.76 kbyte instead of      8323.20 kbyte of memory.
  | Using the partition_type stratmann_smoother will reduce your memory usage.
  | Net number of integration points:    72312
  | of which are non-zero points    :    49128
  | Numerical average free-atom electrostatic potential    :    -14.04107976 eV
  Renormalizing the initial density to the exact electron count on the 3D integration grid.
  | Initial density: Formal number of electrons (from input files) :      24.0000000000
  | Integrated number of electrons on 3D grid     :      24.0000819816
  | Charge integration error                      :       0.0000819816
  | Normalization factor for density and gradient :       0.9999965841
  Renormalizing the free-atom superposition density to the exact electron count on the 3D integration grid.
  | Formal number of electrons (from input files) :      24.0000000000
  | Integrated number of electrons on 3D grid     :      24.0000819816
  | Charge integration error                      :       0.0000819816
  | Normalization factor for density and gradient :       0.9999965841
  Obtaining max. number of non-zero basis functions in each batch (get_n_compute_maxes).
  | Maximal number of non-zero basis functions:     2198 in task     0
  | Maximal number of non-zero basis functions:     2158 in task     1
  | Maximal number of non-zero basis functions:     2196 in task     2
  | Maximal number of non-zero basis functions:     2187 in task     3
  | Maximal number of non-zero basis functions:     2207 in task     4
  | Maximal number of non-zero basis functions:     2231 in task     5
  | Maximal number of non-zero basis functions:     2214 in task     6
  | Maximal number of non-zero basis functions:     2201 in task     7
  | Maximal number of non-zero basis functions:     2193 in task     8
  | Maximal number of non-zero basis functions:     2179 in task     9
  | Maximal number of non-zero basis functions:     2183 in task    10
  | Maximal number of non-zero basis functions:     2203 in task    11
  | Maximal number of non-zero basis functions:     2198 in task    12
  | Maximal number of non-zero basis functions:     2215 in task    13
  | Maximal number of non-zero basis functions:     2182 in task    14
  | Maximal number of non-zero basis functions:     2188 in task    15
  | Maximal number of non-zero basis functions:     2251 in task    16
  | Maximal number of non-zero basis functions:     2200 in task    17
  | Maximal number of non-zero basis functions:     2185 in task    18
  | Maximal number of non-zero basis functions:     2185 in task    19
  | Maximal number of non-zero basis functions:     2209 in task    20
  | Maximal number of non-zero basis functions:     2201 in task    21
  | Maximal number of non-zero basis functions:     2231 in task    22
  | Maximal number of non-zero basis functions:     2203 in task    23
  Allocating        2.571 MB for KS_eigenvector_complex
  Integrating Hamiltonian matrix: batch-based integration.
  Time summed over all CPUs for integration: real work       65.193 s, elapsed       66.116 s
  Integrating overlap matrix.
  Time summed over all CPUs for integration: real work       54.949 s, elapsed       56.047 s
  Decreasing sparse matrix size:
  | Tolerance:  0.1000E-12
  Hamiltonian matrix
  | Array has   805750 nonzero elements out of  1112301 elements
  | Sparsity factor is 0.276
  Overlap matrix
  | Array has   738758 nonzero elements out of  1112301 elements
  | Sparsity factor is 0.336
  New size of hamiltonian matrix:      807919

  Updating Kohn-Sham eigenvalues and eigenvectors using ELSI and the (modified) LAPACK eigensolver.
  Singularity check in k-point 24, task 0 (analysis for other k-points/tasks may follow below):
  Overlap matrix is not singular
  | Lowest and highest eigenvalues :  0.9626E-04,  0.1926E+02
  Finished singularity check of overlap matrix
  | Time :     0.022 s
  Starting LAPACK eigensolver
  Finished Cholesky decomposition
  | Time :     0.017 s
  Finished transformation to standard eigenproblem
  | Time :     0.001 s
  Finished solving standard eigenproblem
  | Time :     0.005 s
  Finished back-transformation of eigenvectors
  | Time :     0.000 s

  Obtaining occupation numbers and chemical potential using ELSI.
  | Chemical potential (Fermi level):    -7.81252334 eV
  Writing Kohn-Sham eigenvalues.
  K-point:       1 at    0.000000    0.000000    0.000000 (in units of recip. lattice)

  State    Occupation    Eigenvalue [Ha]    Eigenvalue [eV]
      1       2.00000         -10.166665         -276.64904
      2       2.00000         -10.166665         -276.64902
      3       2.00000         -10.165707         -276.62296
      4       2.00000         -10.165707         -276.62296
      5       2.00000          -1.052018          -28.62686
      6       2.00000          -1.044067          -28.41052
      7       2.00000          -0.601500          -16.36764
      8       2.00000          -0.544764          -14.82379
      9       2.00000          -0.469080          -12.76431
     10       2.00000          -0.469080          -12.76431
     11       2.00000          -0.468619          -12.75177
     12       2.00000          -0.468619          -12.75177
     13       0.00000          -0.080400           -2.18779
     14       0.00000          -0.030689           -0.83509
     15       0.00000          -0.030688           -0.83507
     16       0.00000          -0.029369           -0.79918
     17       0.00000          -0.029368           -0.79916
     18       0.00000           0.093146            2.53464
     19       0.00000           0.098826            2.68918
     20       0.00000           0.126375            3.43883
     21       0.00000           0.132080            3.59407
     22       0.00000           0.137496            3.74146
     23       0.00000           0.415112           11.29578
     24       0.00000           0.558242           15.19054

  What follows are estimated values for band gap, HOMO, LUMO, etc.
  | They are estimated on a discrete k-point grid and not necessarily exact.
  | For converged numbers, create a DOS and/or band structure plot on a denser k-grid.

  Highest occupied state (VBM) at     -8.69727798 eV (relative to internal zero)
  | Occupation number:      2.00000000
  | K-point:     960 at    0.692308    0.692308    0.000000 (in units of recip. lattice)

  Lowest unoccupied state (CBM) at    -7.77003775 eV (relative to internal zero)
  | Occupation number:      0.00000000
  | K-point:     960 at    0.692308    0.692308    0.000000 (in units of recip. lattice)

  ESTIMATED overall HOMO-LUMO gap:      0.92724023 eV between HOMO at k-point 960 and LUMO at k-point 960
  | This appears to be a direct band gap.
  The gap value is above 0.2 eV. Unless you are using a very sparse k-point grid,
  this system is most likely an insulator or a semiconductor.
  Calculating total energy contributions from superposition of free atom densities.

  Total energy components:
  | Sum of eigenvalues            :         -92.01150360 Ha       -2503.76040299 eV
  | XC energy correction          :         -21.41694622 Ha        -582.78475833 eV
  | XC potential correction       :          27.51703132 Ha         748.77651945 eV
  | Free-atom electrostatic energy:         -66.62162784 Ha       -1812.86673124 eV
  | Hartree energy correction     :           0.00000000 Ha           0.00000000 eV
  | Entropy correction            :          -0.00000000 Ha          -0.00000000 eV
  | ---------------------------
  | Total energy                  :        -152.53304635 Ha       -4150.63537312 eV
  | Total energy, T -> 0          :        -152.53304635 Ha       -4150.63537312 eV  <-- do not rely on this value for anything but (periodic) metals
  | Electronic free energy        :        -152.53304635 Ha       -4150.63537312 eV

  Derived energy quantities:
  | Kinetic energy                :         151.91524178 Ha        4133.82405535 eV
  | Electrostatic energy          :        -283.03134191 Ha       -7701.67467014 eV
  | Energy correction for multipole
  | error in Hartree potential    :           0.00000000 Ha           0.00000000 eV
  | Sum of eigenvalues per atom                           :        -625.94010075 eV
  | Total energy (T->0) per atom                          :       -1037.65884328 eV  <-- do not rely on this value for anything but (periodic) metals
  | Electronic free energy per atom                       :       -1037.65884328 eV
  Initialize hartree_potential_storage
  Max. number of atoms included in rho_multipole:            4

  End scf initialization - timings             :  max(cpu_time)    wall_clock(cpu1)
  | Time for scf. initialization               :        7.396 s           7.442 s
  | Boundary condition initialization          :        0.165 s           0.166 s
  | Integration                                :        5.193 s           5.196 s
  | Solution of K.-S. eqns.                    :        0.840 s           0.866 s
  | Grid partitioning                          :        0.092 s           0.094 s
  | Preloading free-atom quantities on grid    :        0.009 s           0.009 s
  | Free-atom superposition energy             :        0.054 s           0.055 s
  | Total energy evaluation                    :        0.001 s           0.001 s

  Partial memory accounting:
  | Current value for overall tracked memory usage:
  |   Minimum:       17.981 MB (on task  0)
  |   Maximum:       18.038 MB (on task  1)
  |   Average:       18.026 MB
  | Peak value for overall tracked memory usage:
  |   Minimum:       64.066 MB (on task  1 after allocating wave)
  |   Maximum:       67.396 MB (on task 16 after allocating wave)
  |   Average:       65.542 MB
  | Largest tracked array allocation so far:
  |   Minimum:       35.530 MB (hamiltonian_shell on task  1)
  |   Maximum:       38.658 MB (hamiltonian_shell on task 16)
  |   Average:       36.926 MB
  Note:  These values currently only include a subset of arrays which are explicitly tracked.
  The "true" memory usage will be greater.
------------------------------------------------------------

------------------------------------------------------------
          Begin self-consistency iteration #    1

  Date     :  20200319, Time     :  194137.194
------------------------------------------------------------
  Evaluating new KS density using the density matrix
  Evaluating density matrix
  Time summed over all CPUs for getting density from density matrix: real work      119.528 s, elapsed      121.581 s
  Integration grid: deviation in total charge (<rho> - N_e) =   5.130119E-12
  Pulay mixing of updated and previous charge densities.
  Renormalizing the density to the exact electron count on the 3D integration grid.
  | Formal number of electrons (from input files) :      24.0000000000
  | Integrated number of electrons on 3D grid     :      23.9996352049
  | Charge integration error                      :      -0.0003647951
  | Normalization factor for density and gradient :       1.0000152000

  Evaluating partitioned Hartree potential by multipole expansion.
  | Original multipole sum: apparent total charge =  -0.950169E-14
  | Sum of charges compensated after spline to logarithmic grids =   0.672472E-07
  | Analytical far-field extrapolation by fixed multipoles:
  | Hartree multipole sum: apparent total charge =  -0.951436E-14
  Summing up the Hartree potential.
  Time summed over all CPUs for potential: real work        8.449 s, elapsed        8.754 s
  | RMS charge density error from multipole expansion :   0.583696E-03
  | Average real-space part of the electrostatic potential :      0.02381148 eV

  Integrating Hamiltonian matrix: batch-based integration.
  Time summed over all CPUs for integration: real work       61.234 s, elapsed       62.069 s

  Updating Kohn-Sham eigenvalues and eigenvectors using ELSI and the (modified) LAPACK eigensolver.
  Starting LAPACK eigensolver
  Finished Cholesky decomposition
  | Time :     0.000 s
  Finished transformation to standard eigenproblem
  | Time :     0.002 s
  Finished solving standard eigenproblem
  | Time :     0.004 s
  Finished back-transformation of eigenvectors
  | Time :     0.000 s

  Obtaining occupation numbers and chemical potential using ELSI.
  | Chemical potential (Fermi level):    -7.72358761 eV
  Writing Kohn-Sham eigenvalues.
  K-point:       1 at    0.000000    0.000000    0.000000 (in units of recip. lattice)

  State    Occupation    Eigenvalue [Ha]    Eigenvalue [eV]
      1       2.00000         -10.157468         -276.39877
      2       2.00000         -10.157468         -276.39876
      3       2.00000         -10.156503         -276.37250
      4       2.00000         -10.156503         -276.37250
      5       2.00000          -1.047346          -28.49972
      6       2.00000          -1.039234          -28.27900
      7       2.00000          -0.599226          -16.30577
      8       2.00000          -0.541589          -14.73740
      9       2.00000          -0.462678          -12.59011
     10       2.00000          -0.462678          -12.59010
     11       2.00000          -0.462206          -12.57728
     12       2.00000          -0.462206          -12.57727
     13       0.00000          -0.081208           -2.20979
     14       0.00000          -0.025311           -0.68875
     15       0.00000          -0.025310           -0.68873
     16       0.00000          -0.023965           -0.65211
     17       0.00000          -0.023964           -0.65210
     18       0.00000           0.097817            2.66174
     19       0.00000           0.103591            2.81885
     20       0.00000           0.126618            3.44544
     21       0.00000           0.136999            3.72793
     22       0.00000           0.142514            3.87801
     23       0.00000           0.415828           11.31524
     24       0.00000           0.560509           15.25222

  What follows are estimated values for band gap, HOMO, LUMO, etc.
  | They are estimated on a discrete k-point grid and not necessarily exact.
  | For converged numbers, create a DOS and/or band structure plot on a denser k-grid.

  Highest occupied state (VBM) at     -8.60202910 eV (relative to internal zero)
  | Occupation number:      2.00000000
  | K-point:     960 at    0.692308    0.692308    0.000000 (in units of recip. lattice)

  Lowest unoccupied state (CBM) at    -7.68112413 eV (relative to internal zero)
  | Occupation number:      0.00000000
  | K-point:     960 at    0.692308    0.692308    0.000000 (in units of recip. lattice)

  ESTIMATED overall HOMO-LUMO gap:      0.92090497 eV between HOMO at k-point 960 and LUMO at k-point 960
  | This appears to be a direct band gap.
  The gap value is above 0.2 eV. Unless you are using a very sparse k-point grid,
  this system is most likely an insulator or a semiconductor.

  Total energy components:
  | Sum of eigenvalues            :         -91.85980505 Ha       -2499.63247540 eV
  | XC energy correction          :         -21.43010440 Ha        -583.14281064 eV
  | XC potential correction       :          27.53401391 Ha         749.23863941 eV
  | Free-atom electrostatic energy:         -66.62162784 Ha       -1812.86673124 eV
  | Hartree energy correction     :          -0.14569022 Ha          -3.96443247 eV
  | Entropy correction            :          -0.00000000 Ha          -0.00000000 eV
  | ---------------------------
  | Total energy                  :        -152.52321360 Ha       -4150.36781034 eV
  | Total energy, T -> 0          :        -152.52321360 Ha       -4150.36781034 eV  <-- do not rely on this value for anything but (periodic) metals
  | Electronic free energy        :        -152.52321360 Ha       -4150.36781034 eV

  Derived energy quantities:
  | Kinetic energy                :         151.96271025 Ha        4135.11573840 eV
  | Electrostatic energy          :        -283.05581945 Ha       -7702.34073810 eV
  | Energy correction for multipole
  | error in Hartree potential    :          -0.00131052 Ha          -0.03566102 eV
  | Sum of eigenvalues per atom                           :        -624.90811885 eV
  | Total energy (T->0) per atom                          :       -1037.59195259 eV  <-- do not rely on this value for anything but (periodic) metals
  | Electronic free energy per atom                       :       -1037.59195259 eV

  Self-consistency convergence accuracy:
  | Change of charge density      :  0.3312E+00
  | Change of sum of eigenvalues  :  0.4128E+01 eV
  | Change of total energy        :  0.2676E+00 eV

  End self-consistency iteration #     1       :  max(cpu_time)    wall_clock(cpu1)
  | Time for this iteration                    :        9.159 s           9.160 s
  | Charge density update                      :        5.336 s           5.337 s
  | Density mixing & preconditioning           :        0.167 s           0.167 s
  | Hartree multipole update                   :        0.002 s           0.002 s
  | Hartree multipole summation                :        0.372 s           0.372 s
  | Integration                                :        2.642 s           2.643 s
  | Solution of K.-S. eqns.                    :        0.637 s           0.637 s
  | Total energy evaluation                    :        0.001 s           0.001 s

  Partial memory accounting:
  | Current value for overall tracked memory usage:
  |   Minimum:       17.981 MB (on task  0)
  |   Maximum:       18.038 MB (on task  1)
  |   Average:       18.026 MB
  | Peak value for overall tracked memory usage:
  |   Minimum:       64.066 MB (on task  1 after allocating wave)
  |   Maximum:       67.396 MB (on task 16 after allocating wave)
  |   Average:       65.542 MB
  | Largest tracked array allocation so far:
  |   Minimum:       35.530 MB (hamiltonian_shell on task  1)
  |   Maximum:       38.658 MB (hamiltonian_shell on task 16)
  |   Average:       36.926 MB
  Note:  These values currently only include a subset of arrays which are explicitly tracked.
  The "true" memory usage will be greater.
------------------------------------------------------------

------------------------------------------------------------
          Begin self-consistency iteration #    2

  Date     :  20200319, Time     :  194146.355
------------------------------------------------------------
  Evaluating new KS density using the density matrix
  Evaluating density matrix
  Time summed over all CPUs for getting density from density matrix: real work      119.149 s, elapsed      121.432 s
  Integration grid: deviation in total charge (<rho> - N_e) =   5.222489E-12
  Pulay mixing of updated and previous charge densities.
  Renormalizing the density to the exact electron count on the 3D integration grid.
  | Formal number of electrons (from input files) :      24.0000000000
  | Integrated number of electrons on 3D grid     :      23.9939541998
  | Charge integration error                      :      -0.0060458002
  | Normalization factor for density and gradient :       1.0002519718

  Evaluating partitioned Hartree potential by multipole expansion.
  | Original multipole sum: apparent total charge =   0.523355E-14
  | Sum of charges compensated after spline to logarithmic grids =   0.119309E-05
  | Analytical far-field extrapolation by fixed multipoles:
  | Hartree multipole sum: apparent total charge =   0.527775E-14
  Summing up the Hartree potential.
  Time summed over all CPUs for potential: real work        8.648 s, elapsed        8.955 s
  | RMS charge density error from multipole expansion :   0.104467E-01
  | Average real-space part of the electrostatic potential :      0.42326622 eV

  Integrating Hamiltonian matrix: batch-based integration.
  Time summed over all CPUs for integration: real work       61.182 s, elapsed       62.081 s

  Updating Kohn-Sham eigenvalues and eigenvectors using ELSI and the (modified) LAPACK eigensolver.
  Starting LAPACK eigensolver
  Finished Cholesky decomposition
  | Time :     0.000 s
  Finished transformation to standard eigenproblem
  | Time :     0.001 s
  Finished solving standard eigenproblem
  | Time :     0.004 s
  Finished back-transformation of eigenvectors
  | Time :     0.001 s

  Obtaining occupation numbers and chemical potential using ELSI.
  | Chemical potential (Fermi level):    -6.29055395 eV
  What follows are estimated values for band gap, HOMO, LUMO, etc.
  | They are estimated on a discrete k-point grid and not necessarily exact.
  | For converged numbers, create a DOS and/or band structure plot on a denser k-grid.

  Highest occupied state (VBM) at     -7.04716076 eV (relative to internal zero)
  | Occupation number:      2.00000000
  | K-point:     515 at    0.307692    0.384615    0.000000 (in units of recip. lattice)

  Lowest unoccupied state (CBM) at    -6.24810155 eV (relative to internal zero)
  | Occupation number:      0.00000000
  | K-point:     960 at    0.692308    0.692308    0.000000 (in units of recip. lattice)

  ESTIMATED overall HOMO-LUMO gap:      0.79905920 eV between HOMO at k-point 515 and LUMO at k-point 960
  | This appears to be an indirect band gap.
  | Smallest direct gap :      0.79905987 eV for k_point 960 at    0.692308    0.692308    0.000000 (in units of recip. lattice)
  The gap value is above 0.2 eV. Unless you are using a very sparse k-point grid,
  this system is most likely an insulator or a semiconductor.

  Total energy components:
  | Sum of eigenvalues            :         -89.33676873 Ha       -2430.97716379 eV
  | XC energy correction          :         -21.68732573 Ha        -590.14215914 eV
  | XC potential correction       :          27.86358457 Ha         758.20671327 eV
  | Free-atom electrostatic energy:         -66.62162784 Ha       -1812.86673124 eV
  | Hartree energy correction     :          -2.66675563 Ha         -72.56611279 eV
  | Entropy correction            :          -0.00000000 Ha          -0.00000000 eV
  | ---------------------------
  | Total energy                  :        -152.44889336 Ha       -4148.34545370 eV
  | Total energy, T -> 0          :        -152.44889336 Ha       -4148.34545370 eV  <-- do not rely on this value for anything but (periodic) metals
  | Electronic free energy        :        -152.44889336 Ha       -4148.34545370 eV

  Derived energy quantities:
  | Kinetic energy                :         152.57238205 Ha        4151.70575201 eV
  | Electrostatic energy          :        -283.33394968 Ha       -7709.90904656 eV
  | Energy correction for multipole
  | error in Hartree potential    :          -0.02327754 Ha          -0.63341417 eV
  | Sum of eigenvalues per atom                           :        -607.74429095 eV
  | Total energy (T->0) per atom                          :       -1037.08636342 eV  <-- do not rely on this value for anything but (periodic) metals
  | Electronic free energy per atom                       :       -1037.08636342 eV

  Self-consistency convergence accuracy:
  | Change of charge density      :  0.3128E+00
  | Change of sum of eigenvalues  :  0.6866E+02 eV
  | Change of total energy        :  0.2022E+01 eV

  End self-consistency iteration #     2       :  max(cpu_time)    wall_clock(cpu1)
  | Time for this iteration                    :        9.166 s           9.166 s
  | Charge density update                      :        5.327 s           5.327 s
  | Density mixing & preconditioning           :        0.176 s           0.176 s
  | Hartree multipole update                   :        0.002 s           0.002 s
  | Hartree multipole summation                :        0.381 s           0.381 s
  | Integration                                :        2.642 s           2.642 s
  | Solution of K.-S. eqns.                    :        0.637 s           0.637 s
  | Total energy evaluation                    :        0.001 s           0.001 s

  Partial memory accounting:
  | Current value for overall tracked memory usage:
  |   Minimum:       17.982 MB (on task  0)
  |   Maximum:       18.039 MB (on task  1)
  |   Average:       18.027 MB
  | Peak value for overall tracked memory usage:
  |   Minimum:       64.066 MB (on task  1 after allocating wave)
  |   Maximum:       67.396 MB (on task 16 after allocating wave)
  |   Average:       65.542 MB
  | Largest tracked array allocation so far:
  |   Minimum:       35.530 MB (hamiltonian_shell on task  1)
  |   Maximum:       38.658 MB (hamiltonian_shell on task 16)
  |   Average:       36.926 MB
  Note:  These values currently only include a subset of arrays which are explicitly tracked.
  The "true" memory usage will be greater.
------------------------------------------------------------

------------------------------------------------------------
          Begin self-consistency iteration #    3

  Date     :  20200319, Time     :  194155.527
------------------------------------------------------------
  Evaluating new KS density using the density matrix
  Evaluating density matrix
  Time summed over all CPUs for getting density from density matrix: real work      119.134 s, elapsed      121.548 s
  Integration grid: deviation in total charge (<rho> - N_e) =   5.258016E-12
  Pulay mixing of updated and previous charge densities.
  Renormalizing the density to the exact electron count on the 3D integration grid.
  | Formal number of electrons (from input files) :      24.0000000000
  | Integrated number of electrons on 3D grid     :      24.0007851405
  | Charge integration error                      :       0.0007851405
  | Normalization factor for density and gradient :       0.9999672869

  Evaluating partitioned Hartree potential by multipole expansion.
  | Original multipole sum: apparent total charge =  -0.171550E-13
  | Sum of charges compensated after spline to logarithmic grids =   0.122657E-05
  | Analytical far-field extrapolation by fixed multipoles:
  | Hartree multipole sum: apparent total charge =  -0.170116E-13
  Summing up the Hartree potential.
  Time summed over all CPUs for potential: real work        8.644 s, elapsed        8.948 s
  | RMS charge density error from multipole expansion :   0.107160E-01
  | Average real-space part of the electrostatic potential :      0.41703007 eV

  Integrating Hamiltonian matrix: batch-based integration.
  Time summed over all CPUs for integration: real work       61.144 s, elapsed       62.026 s

  Updating Kohn-Sham eigenvalues and eigenvectors using ELSI and the (modified) LAPACK eigensolver.
  Starting LAPACK eigensolver
  Finished Cholesky decomposition
  | Time :     0.000 s
  Finished transformation to standard eigenproblem
  | Time :     0.002 s
  Finished solving standard eigenproblem
  | Time :     0.004 s
  Finished back-transformation of eigenvectors
  | Time :     0.000 s

  Obtaining occupation numbers and chemical potential using ELSI.
  | Chemical potential (Fermi level):    -6.38235260 eV
  What follows are estimated values for band gap, HOMO, LUMO, etc.
  | They are estimated on a discrete k-point grid and not necessarily exact.
  | For converged numbers, create a DOS and/or band structure plot on a denser k-grid.

  Highest occupied state (VBM) at     -7.14962587 eV (relative to internal zero)
  | Occupation number:      2.00000000
  | K-point:     632 at    0.384615    0.307692    0.000000 (in units of recip. lattice)

  Lowest unoccupied state (CBM) at    -6.33989892 eV (relative to internal zero)
  | Occupation number:      0.00000000
  | K-point:     960 at    0.692308    0.692308    0.000000 (in units of recip. lattice)

  ESTIMATED overall HOMO-LUMO gap:      0.80972695 eV between HOMO at k-point 632 and LUMO at k-point 960
  | This appears to be an indirect band gap.
  | Smallest direct gap :      0.80972936 eV for k_point 515 at    0.692308    0.692308    0.000000 (in units of recip. lattice)
  The gap value is above 0.2 eV. Unless you are using a very sparse k-point grid,
  this system is most likely an insulator or a semiconductor.

  Checking to see if s.c.f. parameters should be adjusted.
  The system likely has a gap. Increased the default Pulay mixing parameter (charge_mix_param). Value:   0.200000 .
  Kept the default occupation width. Value:   0.010000 eV.

  Total energy components:
  | Sum of eigenvalues            :         -89.54304779 Ha       -2436.59030279 eV
  | XC energy correction          :         -21.65761908 Ha        -589.33380023 eV
  | XC potential correction       :          27.82624592 Ha         757.19067689 eV
  | Free-atom electrostatic energy:         -66.62162784 Ha       -1812.86673124 eV
  | Hartree energy correction     :          -2.45270956 Ha         -66.74162296 eV
  | Entropy correction            :          -0.00000000 Ha          -0.00000000 eV
  | ---------------------------
  | Total energy                  :        -152.44875836 Ha       -4148.34178033 eV
  | Total energy, T -> 0          :        -152.44875836 Ha       -4148.34178033 eV  <-- do not rely on this value for anything but (periodic) metals
  | Electronic free energy        :        -152.44875836 Ha       -4148.34178033 eV

  Derived energy quantities:
  | Kinetic energy                :         152.33301349 Ha        4145.19220215 eV
  | Electrostatic energy          :        -283.12415277 Ha       -7704.20018226 eV
  | Energy correction for multipole
  | error in Hartree potential    :          -0.02362505 Ha          -0.64287045 eV
  | Sum of eigenvalues per atom                           :        -609.14757570 eV
  | Total energy (T->0) per atom                          :       -1037.08544508 eV  <-- do not rely on this value for anything but (periodic) metals
  | Electronic free energy per atom                       :       -1037.08544508 eV

  Self-consistency convergence accuracy:
  | Change of charge density      :  0.3957E-01
  | Change of sum of eigenvalues  : -0.5613E+01 eV
  | Change of total energy        :  0.3673E-02 eV

  End self-consistency iteration #     3       :  max(cpu_time)    wall_clock(cpu1)
  | Time for this iteration                    :        9.170 s           9.171 s
  | Charge density update                      :        5.332 s           5.333 s
  | Density mixing & preconditioning           :        0.177 s           0.176 s
  | Hartree multipole update                   :        0.002 s           0.002 s
  | Hartree multipole summation                :        0.381 s           0.381 s
  | Integration                                :        2.640 s           2.640 s
  | Solution of K.-S. eqns.                    :        0.637 s           0.637 s
  | Total energy evaluation                    :        0.001 s           0.001 s

  Partial memory accounting:
  | Current value for overall tracked memory usage:
  |   Minimum:       17.982 MB (on task  0)
  |   Maximum:       18.039 MB (on task  1)
  |   Average:       18.027 MB
  | Peak value for overall tracked memory usage:
  |   Minimum:       64.066 MB (on task  1 after allocating wave)
  |   Maximum:       67.396 MB (on task 16 after allocating wave)
  |   Average:       65.542 MB
  | Largest tracked array allocation so far:
  |   Minimum:       35.530 MB (hamiltonian_shell on task  1)
  |   Maximum:       38.658 MB (hamiltonian_shell on task 16)
  |   Average:       36.926 MB
  Note:  These values currently only include a subset of arrays which are explicitly tracked.
  The "true" memory usage will be greater.
------------------------------------------------------------

------------------------------------------------------------
          Begin self-consistency iteration #    4

  Date     :  20200319, Time     :  194204.698
------------------------------------------------------------
  Evaluating new KS density using the density matrix
  Evaluating density matrix
  Time summed over all CPUs for getting density from density matrix: real work      119.162 s, elapsed      121.461 s
  Integration grid: deviation in total charge (<rho> - N_e) =   5.261569E-12
  Pulay mixing of updated and previous charge densities.
  Renormalizing the density to the exact electron count on the 3D integration grid.
  | Formal number of electrons (from input files) :      24.0000000000
  | Integrated number of electrons on 3D grid     :      24.0007997256
  | Charge integration error                      :       0.0007997256
  | Normalization factor for density and gradient :       0.9999666792

  Evaluating partitioned Hartree potential by multipole expansion.
  | Original multipole sum: apparent total charge =  -0.515899E-14
  | Sum of charges compensated after spline to logarithmic grids =   0.139506E-05
  | Analytical far-field extrapolation by fixed multipoles:
  | Hartree multipole sum: apparent total charge =  -0.496951E-14
  Summing up the Hartree potential.
  Time summed over all CPUs for potential: real work        8.670 s, elapsed        8.976 s
  | RMS charge density error from multipole expansion :   0.122539E-01
  | Average real-space part of the electrostatic potential :      0.44775406 eV

  Integrating Hamiltonian matrix: batch-based integration.
  Time summed over all CPUs for integration: real work       61.201 s, elapsed       62.094 s

  Updating Kohn-Sham eigenvalues and eigenvectors using ELSI and the (modified) LAPACK eigensolver.
  Starting LAPACK eigensolver
  Finished Cholesky decomposition
  | Time :     0.001 s
  Finished transformation to standard eigenproblem
  | Time :     0.001 s
  Finished solving standard eigenproblem
  | Time :     0.005 s
  Finished back-transformation of eigenvectors
  | Time :     0.000 s

  Obtaining occupation numbers and chemical potential using ELSI.
  | Chemical potential (Fermi level):    -6.39621479 eV
  What follows are estimated values for band gap, HOMO, LUMO, etc.
  | They are estimated on a discrete k-point grid and not necessarily exact.
  | For converged numbers, create a DOS and/or band structure plot on a denser k-grid.

  Highest occupied state (VBM) at     -7.16772273 eV (relative to internal zero)
  | Occupation number:      2.00000000
  | K-point:     632 at    0.384615    0.307692    0.000000 (in units of recip. lattice)

  Lowest unoccupied state (CBM) at    -6.35374989 eV (relative to internal zero)
  | Occupation number:      0.00000000
  | K-point:     632 at    0.384615    0.307692    0.000000 (in units of recip. lattice)

  ESTIMATED overall HOMO-LUMO gap:      0.81397284 eV between HOMO at k-point 632 and LUMO at k-point 632
  | This appears to be a direct band gap.
  The gap value is above 0.2 eV. Unless you are using a very sparse k-point grid,
  this system is most likely an insulator or a semiconductor.

  Total energy components:
  | Sum of eigenvalues            :         -89.63751424 Ha       -2439.16086557 eV
  | XC energy correction          :         -21.63766976 Ha        -588.79095151 eV
  | XC potential correction       :          27.80156959 Ha         756.51919983 eV
  | Free-atom electrostatic energy:         -66.62162784 Ha       -1812.86673124 eV
  | Hartree energy correction     :          -2.35372772 Ha         -64.04818989 eV
  | Entropy correction            :          -0.00000000 Ha          -0.00000000 eV
  | ---------------------------
  | Total energy                  :        -152.44896997 Ha       -4148.34753838 eV
  | Total energy, T -> 0          :        -152.44896997 Ha       -4148.34753838 eV  <-- do not rely on this value for anything but (periodic) metals
  | Electronic free energy        :        -152.44896997 Ha       -4148.34753838 eV

  Derived energy quantities:
  | Kinetic energy                :         151.97717825 Ha        4135.50943266 eV
  | Electrostatic energy          :        -282.78847846 Ha       -7695.06601953 eV
  | Energy correction for multipole
  | error in Hartree potential    :          -0.02653430 Ha          -0.72203511 eV
  | Sum of eigenvalues per atom                           :        -609.79021639 eV
  | Total energy (T->0) per atom                          :       -1037.08688460 eV  <-- do not rely on this value for anything but (periodic) metals
  | Electronic free energy per atom                       :       -1037.08688460 eV

  Self-consistency convergence accuracy:
  | Change of charge density      :  0.2747E-01
  | Change of sum of eigenvalues  : -0.2571E+01 eV
  | Change of total energy        : -0.5758E-02 eV

  End self-consistency iteration #     4       :  max(cpu_time)    wall_clock(cpu1)
  | Time for this iteration                    :        9.147 s           9.148 s
  | Charge density update                      :        5.330 s           5.330 s
  | Density mixing & preconditioning           :        0.151 s           0.152 s
  | Hartree multipole update                   :        0.002 s           0.001 s
  | Hartree multipole summation                :        0.383 s           0.383 s
  | Integration                                :        2.642 s           2.642 s
  | Solution of K.-S. eqns.                    :        0.638 s           0.639 s
  | Total energy evaluation                    :        0.001 s           0.001 s

  Partial memory accounting:
  | Current value for overall tracked memory usage:
  |   Minimum:       17.982 MB (on task  0)
  |   Maximum:       18.039 MB (on task  1)
  |   Average:       18.027 MB
  | Peak value for overall tracked memory usage:
  |   Minimum:       64.066 MB (on task  1 after allocating wave)
  |   Maximum:       67.396 MB (on task 16 after allocating wave)
  |   Average:       65.542 MB
  | Largest tracked array allocation so far:
  |   Minimum:       35.530 MB (hamiltonian_shell on task  1)
  |   Maximum:       38.658 MB (hamiltonian_shell on task 16)
  |   Average:       36.926 MB
  Note:  These values currently only include a subset of arrays which are explicitly tracked.
  The "true" memory usage will be greater.
------------------------------------------------------------

------------------------------------------------------------
          Begin self-consistency iteration #    5

  Date     :  20200319, Time     :  194213.846
------------------------------------------------------------
  Evaluating new KS density using the density matrix
  Evaluating density matrix
  Time summed over all CPUs for getting density from density matrix: real work      119.114 s, elapsed      121.461 s
  Integration grid: deviation in total charge (<rho> - N_e) =   5.211831E-12
  Pulay mixing of updated and previous charge densities.
  Renormalizing the density to the exact electron count on the 3D integration grid.
  | Formal number of electrons (from input files) :      24.0000000000
  | Integrated number of electrons on 3D grid     :      24.0002801810
  | Charge integration error                      :       0.0002801810
  | Normalization factor for density and gradient :       0.9999883259

  Evaluating partitioned Hartree potential by multipole expansion.
  | Original multipole sum: apparent total charge =  -0.600550E-14
  | Sum of charges compensated after spline to logarithmic grids =   0.138614E-05
  | Analytical far-field extrapolation by fixed multipoles:
  | Hartree multipole sum: apparent total charge =  -0.598071E-14
  Summing up the Hartree potential.
  Time summed over all CPUs for potential: real work        8.673 s, elapsed        8.980 s
  | RMS charge density error from multipole expansion :   0.125026E-01
  | Average real-space part of the electrostatic potential :      0.45277069 eV

  Integrating Hamiltonian matrix: batch-based integration.
  Time summed over all CPUs for integration: real work       61.155 s, elapsed       62.068 s

  Updating Kohn-Sham eigenvalues and eigenvectors using ELSI and the (modified) LAPACK eigensolver.
  Starting LAPACK eigensolver
  Finished Cholesky decomposition
  | Time :     0.001 s
  Finished transformation to standard eigenproblem
  | Time :     0.001 s
  Finished solving standard eigenproblem
  | Time :     0.005 s
  Finished back-transformation of eigenvectors
  | Time :     0.000 s

  Obtaining occupation numbers and chemical potential using ELSI.
  | Chemical potential (Fermi level):    -6.39007314 eV
  What follows are estimated values for band gap, HOMO, LUMO, etc.
  | They are estimated on a discrete k-point grid and not necessarily exact.
  | For converged numbers, create a DOS and/or band structure plot on a denser k-grid.

  Highest occupied state (VBM) at     -7.16081509 eV (relative to internal zero)
  | Occupation number:      2.00000000
  | K-point:     515 at    0.307692    0.384615    0.000000 (in units of recip. lattice)

  Lowest unoccupied state (CBM) at    -6.34760368 eV (relative to internal zero)
  | Occupation number:      0.00000000
  | K-point:     515 at    0.307692    0.384615    0.000000 (in units of recip. lattice)

  ESTIMATED overall HOMO-LUMO gap:      0.81321141 eV between HOMO at k-point 515 and LUMO at k-point 515
  | This appears to be a direct band gap.
  The gap value is above 0.2 eV. Unless you are using a very sparse k-point grid,
  this system is most likely an insulator or a semiconductor.

  Total energy components:
  | Sum of eigenvalues            :         -89.62764295 Ha       -2438.89225401 eV
  | XC energy correction          :         -21.64017147 Ha        -588.85902662 eV
  | XC potential correction       :          27.80463239 Ha         756.60254283 eV
  | Free-atom electrostatic energy:         -66.62162784 Ha       -1812.86673124 eV
  | Hartree energy correction     :          -2.36415564 Ha         -64.33194824 eV
  | Entropy correction            :          -0.00000000 Ha          -0.00000000 eV
  | ---------------------------
  | Total energy                  :        -152.44896552 Ha       -4148.34741728 eV
  | Total energy, T -> 0          :        -152.44896552 Ha       -4148.34741728 eV  <-- do not rely on this value for anything but (periodic) metals
  | Electronic free energy        :        -152.44896552 Ha       -4148.34741728 eV

  Derived energy quantities:
  | Kinetic energy                :         151.99418226 Ha        4135.97213526 eV
  | Electrostatic energy          :        -282.80297630 Ha       -7695.46052592 eV
  | Energy correction for multipole
  | error in Hartree potential    :          -0.02702819 Ha          -0.73547451 eV
  | Sum of eigenvalues per atom                           :        -609.72306350 eV
  | Total energy (T->0) per atom                          :       -1037.08685432 eV  <-- do not rely on this value for anything but (periodic) metals
  | Electronic free energy per atom                       :       -1037.08685432 eV

  Self-consistency convergence accuracy:
  | Change of charge density      :  0.4577E-02
  | Change of sum of eigenvalues  :  0.2686E+00 eV
  | Change of total energy        :  0.1211E-03 eV

  End self-consistency iteration #     5       :  max(cpu_time)    wall_clock(cpu1)
  | Time for this iteration                    :        9.145 s           9.145 s
  | Charge density update                      :        5.329 s           5.329 s
  | Density mixing & preconditioning           :        0.151 s           0.151 s
  | Hartree multipole update                   :        0.002 s           0.002 s
  | Hartree multipole summation                :        0.383 s           0.383 s
  | Integration                                :        2.641 s           2.641 s
  | Solution of K.-S. eqns.                    :        0.638 s           0.638 s
  | Total energy evaluation                    :        0.001 s           0.001 s

  Partial memory accounting:
  | Current value for overall tracked memory usage:
  |   Minimum:       17.982 MB (on task  0)
  |   Maximum:       18.039 MB (on task  1)
  |   Average:       18.027 MB
  | Peak value for overall tracked memory usage:
  |   Minimum:       64.066 MB (on task  1 after allocating wave)
  |   Maximum:       67.396 MB (on task 16 after allocating wave)
  |   Average:       65.542 MB
  | Largest tracked array allocation so far:
  |   Minimum:       35.530 MB (hamiltonian_shell on task  1)
  |   Maximum:       38.658 MB (hamiltonian_shell on task 16)
  |   Average:       36.926 MB
  Note:  These values currently only include a subset of arrays which are explicitly tracked.
  The "true" memory usage will be greater.
------------------------------------------------------------

------------------------------------------------------------
          Begin self-consistency iteration #    6

  Date     :  20200319, Time     :  194222.992
------------------------------------------------------------
  Evaluating new KS density using the density matrix
  Evaluating density matrix
  Time summed over all CPUs for getting density from density matrix: real work      119.066 s, elapsed      121.458 s
  Integration grid: deviation in total charge (<rho> - N_e) =   5.194067E-12
  Pulay mixing of updated and previous charge densities.
  Renormalizing the density to the exact electron count on the 3D integration grid.
  | Formal number of electrons (from input files) :      24.0000000000
  | Integrated number of electrons on 3D grid     :      23.9999819162
  | Charge integration error                      :      -0.0000180838
  | Normalization factor for density and gradient :       1.0000007535

  Evaluating partitioned Hartree potential by multipole expansion.
  | Original multipole sum: apparent total charge =  -0.137375E-13
  | Sum of charges compensated after spline to logarithmic grids =   0.138591E-05
  | Analytical far-field extrapolation by fixed multipoles:
  | Hartree multipole sum: apparent total charge =  -0.138823E-13
  Summing up the Hartree potential.
  Time summed over all CPUs for potential: real work        8.674 s, elapsed        8.980 s
  | RMS charge density error from multipole expansion :   0.124945E-01
  | Average real-space part of the electrostatic potential :      0.45200919 eV

  Integrating Hamiltonian matrix: batch-based integration.
  Time summed over all CPUs for integration: real work       61.202 s, elapsed       62.083 s

  Updating Kohn-Sham eigenvalues and eigenvectors using ELSI and the (modified) LAPACK eigensolver.
  Starting LAPACK eigensolver
  Finished Cholesky decomposition
  | Time :     0.001 s
  Finished transformation to standard eigenproblem
  | Time :     0.001 s
  Finished solving standard eigenproblem
  | Time :     0.005 s
  Finished back-transformation of eigenvectors
  | Time :     0.000 s

  Obtaining occupation numbers and chemical potential using ELSI.
  | Chemical potential (Fermi level):    -6.39191638 eV
  What follows are estimated values for band gap, HOMO, LUMO, etc.
  | They are estimated on a discrete k-point grid and not necessarily exact.
[...]
  this system is most likely an insulator or a semiconductor.

  Total energy components:
  | Sum of eigenvalues            :         -89.59796757 Ha       -2438.08474592 eV
  | XC energy correction          :         -21.64431679 Ha        -588.97182640 eV
  | XC potential correction       :          27.80990190 Ha         756.74593346 eV
  | Free-atom electrostatic energy:         -66.62162784 Ha       -1812.86673124 eV
  | Hartree energy correction     :          -2.39495735 Ha         -65.17010535 eV
  | Entropy correction            :          -0.00000000 Ha          -0.00000000 eV
  | ---------------------------
  | Total energy                  :        -152.44896765 Ha       -4148.34747546 eV
  | Total energy, T -> 0          :        -152.44896765 Ha       -4148.34747546 eV  <-- do not rely on this value for anything but (periodic) metals
  | Electronic free energy        :        -152.44896765 Ha       -4148.34747546 eV

  Derived energy quantities:
  | Kinetic energy                :         151.99951794 Ha        4136.11732636 eV
  | Electrostatic energy          :        -282.80416880 Ha       -7695.49297542 eV
  | Energy correction for multipole
  | error in Hartree potential    :          -0.02752459 Ha          -0.74898210 eV
  | Sum of eigenvalues per atom                           :        -609.52118648 eV
  | Total energy (T->0) per atom                          :       -1037.08686886 eV  <-- do not rely on this value for anything but (periodic) metals
  | Electronic free energy per atom                       :       -1037.08686886 eV

  Self-consistency convergence accuracy:
  | Change of charge density      :  0.1955E-05
  | Change of sum of eigenvalues  : -0.3148E-04 eV
  | Change of total energy        :  0.2290E-07 eV

  End self-consistency iteration #    20       :  max(cpu_time)    wall_clock(cpu1)
  | Time for this iteration                    :        9.157 s           9.157 s
  | Charge density update                      :        5.330 s           5.330 s
  | Density mixing & preconditioning           :        0.152 s           0.152 s
  | Hartree multipole update                   :        0.002 s           0.002 s
  | Hartree multipole summation                :        0.383 s           0.383 s
  | Integration                                :        2.650 s           2.650 s
  | Solution of K.-S. eqns.                    :        0.638 s           0.639 s
  | Total energy evaluation                    :        0.001 s           0.001 s

  Partial memory accounting:
  | Current value for overall tracked memory usage:
  |   Minimum:       17.982 MB (on task  0)
  |   Maximum:       18.039 MB (on task  1)
  |   Average:       18.027 MB
  | Peak value for overall tracked memory usage:
  |   Minimum:       64.066 MB (on task  1 after allocating wave)
  |   Maximum:       67.396 MB (on task 16 after allocating wave)
  |   Average:       65.542 MB
  | Largest tracked array allocation so far:
  |   Minimum:       35.530 MB (hamiltonian_shell on task  1)
  |   Maximum:       38.658 MB (hamiltonian_shell on task 16)
  |   Average:       36.926 MB
  Note:  These values currently only include a subset of arrays which are explicitly tracked.
  The "true" memory usage will be greater.
------------------------------------------------------------

------------------------------------------------------------
          Begin self-consistency iteration #   21

  Date     :  20200319, Time     :  194440.560
------------------------------------------------------------
  Evaluating new KS density using the density matrix
  Evaluating density matrix
  Time summed over all CPUs for getting density from density matrix: real work      119.106 s, elapsed      121.564 s
  Integration grid: deviation in total charge (<rho> - N_e) =   5.218936E-12
  Pulay mixing of updated and previous charge densities.
  Renormalizing the density to the exact electron count on the 3D integration grid.
  | Formal number of electrons (from input files) :      24.0000000000
  | Integrated number of electrons on 3D grid     :      23.9999999665
  | Charge integration error                      :      -0.0000000335
  | Normalization factor for density and gradient :       1.0000000014

  Evaluating partitioned Hartree potential by multipole expansion.
  | Original multipole sum: apparent total charge =  -0.164286E-13
  | Sum of charges compensated after spline to logarithmic grids =   0.139893E-05
  | Analytical far-field extrapolation by fixed multipoles:
  | Hartree multipole sum: apparent total charge =  -0.164290E-13
  Summing up the Hartree potential.
  Time summed over all CPUs for potential: real work        8.683 s, elapsed        8.989 s
  | RMS charge density error from multipole expansion :   0.126159E-01
  | Average real-space part of the electrostatic potential :      0.45173825 eV

  Integrating Hamiltonian matrix: batch-based integration.
  Time summed over all CPUs for integration: real work       61.191 s, elapsed       62.544 s

  Updating Kohn-Sham eigenvalues and eigenvectors using ELSI and the (modified) LAPACK eigensolver.
  Starting LAPACK eigensolver
  Finished Cholesky decomposition
  | Time :     0.001 s
  Finished transformation to standard eigenproblem
  | Time :     0.001 s
  Finished solving standard eigenproblem
  | Time :     0.005 s
  Finished back-transformation of eigenvectors
  | Time :     0.000 s

  Obtaining occupation numbers and chemical potential using ELSI.
  | Chemical potential (Fermi level):    -6.37007439 eV
  What follows are estimated values for band gap, HOMO, LUMO, etc.
  | They are estimated on a discrete k-point grid and not necessarily exact.
  | For converged numbers, create a DOS and/or band structure plot on a denser k-grid.

  Highest occupied state (VBM) at     -7.13987713 eV (relative to internal zero)
  | Occupation number:      2.00000000
  | K-point:     632 at    0.384615    0.307692    0.000000 (in units of recip. lattice)

  Lowest unoccupied state (CBM) at    -6.32761127 eV (relative to internal zero)
  | Occupation number:      0.00000000
  | K-point:     632 at    0.384615    0.307692    0.000000 (in units of recip. lattice)

  ESTIMATED overall HOMO-LUMO gap:      0.81226585 eV between HOMO at k-point 632 and LUMO at k-point 632
  | This appears to be a direct band gap.
  The gap value is above 0.2 eV. Unless you are using a very sparse k-point grid,
  this system is most likely an insulator or a semiconductor.

  Total energy components:
  | Sum of eigenvalues            :         -89.59796856 Ha       -2438.08477293 eV
  | XC energy correction          :         -21.64431669 Ha        -588.97182358 eV
  | XC potential correction       :          27.80990176 Ha         756.74592973 eV
  | Free-atom electrostatic energy:         -66.62162784 Ha       -1812.86673124 eV
  | Hartree energy correction     :          -2.39495633 Ha         -65.17007745 eV
  | Entropy correction            :          -0.00000000 Ha          -0.00000000 eV
  | ---------------------------
  | Total energy                  :        -152.44896765 Ha       -4148.34747548 eV
  | Total energy, T -> 0          :        -152.44896765 Ha       -4148.34747548 eV  <-- do not rely on this value for anything but (periodic) metals
  | Electronic free energy        :        -152.44896765 Ha       -4148.34747548 eV

  Derived energy quantities:
  | Kinetic energy                :         151.99951724 Ha        4136.11730756 eV
  | Electrostatic energy          :        -282.80416821 Ha       -7695.49295945 eV
  | Energy correction for multipole
  | error in Hartree potential    :          -0.02752458 Ha          -0.74898201 eV
  | Sum of eigenvalues per atom                           :        -609.52119323 eV
  | Total energy (T->0) per atom                          :       -1037.08686887 eV  <-- do not rely on this value for anything but (periodic) metals
  | Electronic free energy per atom                       :       -1037.08686887 eV

  Self-consistency convergence accuracy:
  | Change of charge density      :  0.5970E-06
  | Change of sum of eigenvalues  : -0.2701E-04 eV
  | Change of total energy        : -0.1869E-07 eV

  Preliminary charge convergence reached. Turning off preconditioner.

  Writing Kohn-Sham eigenvalues.
  K-point:       1 at    0.000000    0.000000    0.000000 (in units of recip. lattice)

  State    Occupation    Eigenvalue [Ha]    Eigenvalue [eV]
      1       2.00000         -10.027646         -272.86613
      2       2.00000         -10.027646         -272.86612
      3       2.00000         -10.026033         -272.82223
      4       2.00000         -10.026033         -272.82223
      5       2.00000          -0.974176          -26.50867
      6       2.00000          -0.963197          -26.20993
      7       2.00000          -0.564479          -15.36025
      8       2.00000          -0.492333          -13.39707
      9       2.00000          -0.361603           -9.83972
     10       2.00000          -0.361600           -9.83964
     11       2.00000          -0.360937           -9.82160
     12       2.00000          -0.360934           -9.82153
     13       0.00000          -0.086229           -2.34640
     14       0.00000           0.057449            1.56326
     15       0.00000           0.057450            1.56330
     16       0.00000           0.059233            1.61181
     17       0.00000           0.059234            1.61183
     18       0.00000           0.139687            3.80108
     19       0.00000           0.170916            4.65086
     20       0.00000           0.178080            4.84581
     21       0.00000           0.213301            5.80420
     22       0.00000           0.220555            6.00160
     23       0.00000           0.430012           11.70122
     24       0.00000           0.604327           16.44457

  What follows are estimated values for band gap, HOMO, LUMO, etc.
  | They are estimated on a discrete k-point grid and not necessarily exact.
  | For converged numbers, create a DOS and/or band structure plot on a denser k-grid.

  Highest occupied state (VBM) at     -7.13987713 eV (relative to internal zero)
  | Occupation number:      2.00000000
  | K-point:     632 at    0.384615    0.307692    0.000000 (in units of recip. lattice)

  Lowest unoccupied state (CBM) at    -6.32761127 eV (relative to internal zero)
  | Occupation number:      0.00000000
  | K-point:     632 at    0.384615    0.307692    0.000000 (in units of recip. lattice)

  ESTIMATED overall HOMO-LUMO gap:      0.81226585 eV between HOMO at k-point 632 and LUMO at k-point 632
  | This appears to be a direct band gap.
  The gap value is above 0.2 eV. Unless you are using a very sparse k-point grid,
  this system is most likely an insulator or a semiconductor.

  Self-consistency cycle converged.

  End self-consistency iteration #    21       :  max(cpu_time)    wall_clock(cpu1)
  | Time for this iteration                    :        9.173 s           9.173 s
  | Charge density update                      :        5.334 s           5.334 s
  | Density mixing                             :        0.152 s           0.152 s
  | Hartree multipole update                   :        0.002 s           0.002 s
  | Hartree multipole summation                :        0.383 s           0.383 s
  | Integration                                :        2.661 s           2.661 s
  | Solution of K.-S. eqns.                    :        0.639 s           0.639 s
  | Total energy evaluation                    :        0.001 s           0.001 s

  Partial memory accounting:
  | Current value for overall tracked memory usage:
  |   Minimum:       17.982 MB (on task  0)
  |   Maximum:       18.039 MB (on task  1)
  |   Average:       18.027 MB
  | Peak value for overall tracked memory usage:
  |   Minimum:       64.066 MB (on task  1 after allocating wave)
  |   Maximum:       67.396 MB (on task 16 after allocating wave)
  |   Average:       65.542 MB
  | Largest tracked array allocation so far:
  |   Minimum:       35.530 MB (hamiltonian_shell on task  1)
  |   Maximum:       38.658 MB (hamiltonian_shell on task 16)
  |   Average:       36.926 MB
  Note:  These values currently only include a subset of arrays which are explicitly tracked.
  The "true" memory usage will be greater.
------------------------------------------------------------

  Energy and forces in a compact form:
  | Total energy uncorrected      :         -0.414834747547763E+04 eV
  | Total energy corrected        :         -0.414834747547763E+04 eV  <-- do not rely on this value for anything but (periodic) metals
  | Electronic free energy        :         -0.414834747547763E+04 eV

  ------------------------------------ 
  Start decomposition of the XC Energy 
  ------------------------------------ 
  X and C from original XC functional choice 
  Hartree-Fock Energy :          0.000000000 Ha              0.000000000 eV
  X Energy            :        -20.799213577 Ha           -565.975397941 eV
  C Energy            :         -0.845103109 Ha            -22.996425642 eV
  Total XC Energy     :        -21.644316686 Ha           -588.971823584 eV
  ------------------------------------ 
  LDA X and C from self-consistent density 
  X Energy LDA        :        -18.879520318 Ha           -513.737886544 eV
  C Energy LDA        :         -1.593745889 Ha            -43.368032179 eV
  ------------------------------------ 
  End decomposition of the XC Energy 
  ------------------------------------ 

------------------------------------------------------------

------------------------------------------------------------------------------
  Final output of selected total energy values:

  The following output summarizes some interesting total energy values
  at the end of a run (AFTER all relaxation, molecular dynamics, etc.).

  | Total energy of the DFT / Hartree-Fock s.c.f. calculation      :          -4148.347475478 eV
  | Final zero-broadening corrected energy (caution - metals only) :          -4148.347475478 eV
  | For reference only, the value of 1 Hartree used in FHI-aims is :             27.211384500 eV
  | For reference only, the overall average (free atom contribution
  | + realspace contribution) of the electrostatic potential after
  | s.c.f. convergence is                                          :            -13.589341512 eV

  Before relying on these values, please be sure to understand exactly which
  total energy value is referred to by a given number. Different objects may
  all carry the same name 'total energy'. Definitions:

  Total energy of the DFT / Hartree-Fock s.c.f. calculation:
  | Note that this energy does not include ANY quantities calculated after the
  | s.c.f. cycle, in particular not ANY RPA, MP2, etc. many-body perturbation terms.

  Final zero-broadening corrected energy:
  | For metallic systems only, a broadening of the occupation numbers at the Fermi
  | level can be extrapolated back to zero broadening by an electron-gas inspired
  | formula. For all systems that are not real metals, this value can be
  | meaningless and should be avoided.

------------------------------------------------------------------------------
  Methods described in the following list of references were used in this FHI-aims run.
  If you publish the results, please make sure to cite these reference if they apply.
  FHI-aims is an academic code, and for our developers (often, Ph.D. students
  and postdocs), scientific credit in the community is essential.
  Thank you for helping us!

  For any use of FHI-aims, please cite:

    Volker Blum, Ralf Gehrke, Felix Hanke, Paula Havu, Ville Havu,
    Xinguo Ren, Karsten Reuter, and Matthias Scheffler
    'Ab initio molecular simulations with numeric atom-centered orbitals'
    Computer Physics Communications 180, 2175-2196 (2009)
    http://dx.doi.org/10.1016/j.cpc.2009.06.022


  The provided symmetry information was generated with SPGlib:

    Atsushi Togo, Yusuke Seto, Dimitar Pashov
    SPGlib 1.7.3 obtained from http://spglib.sourceforge.net
    Copyright (C) 2008 Atsushi Togo


  The ELSI infrastructure was used in your run to solve the Kohn-Sham electronic structure.
  Please check out http://elsi-interchange.org to learn more.
  If scalability is important for your project, please acknowledge ELSI by citing:

    V. W-z. Yu, F. Corsetti, A. Garcia, W. P. Huhn, M. Jacquelin, W. Jia,
    B. Lange, L. Lin, J. Lu, W. Mi, A. Seifitokaldani, A. Vazquez-Mayagoitia,
    C. Yang, H. Yang, and V. Blum
    'ELSI: A unified software interface for Kohn-Sham electronic structure solvers'
    Computer Physics Communications 222, 267-285 (2018).
    http://dx.doi.org/10.1016/j.cpc.2017.09.007


  For the real-space grid partitioning and parallelization used in this calculation, please cite:

    Ville Havu, Volker Blum, Paula Havu, and Matthias Scheffler,
    'Efficient O(N) integration for all-electron electronic structure calculation'
    'using numerically tabulated basis functions'
    Journal of Computational Physics 228, 8367-8379 (2009).
    http://dx.doi.org/10.1016/j.jcp.2009.08.008

  Of course, there are many other important community references, e.g., those cited in the
  above references. Our list is limited to references that describe implementations in the
  FHI-aims code. The reason is purely practical (length of this list) - please credit others as well.

------------------------------------------------------------
          Leaving FHI-aims.
          Date     :  20200319, Time     :  194449.747

          Computational steps:
          | Number of self-consistency cycles          :           21
          | Number of SCF (re)initializations          :            1

          Detailed time accounting                     :  max(cpu_time)    wall_clock(cpu1)
          | Total time                                 :      200.289 s         200.700 s
          | Preparation time                           :        0.146 s           0.228 s
          | Boundary condition initalization           :        0.165 s           0.166 s
          | Grid partitioning                          :        0.092 s           0.094 s
          | Preloading free-atom quantities on grid    :        0.009 s           0.009 s
          | Free-atom superposition energy             :        0.054 s           0.055 s
          | Total time for integrations                :       60.819 s          60.821 s
          | Total time for solution of K.-S. equations :       14.304 s          14.339 s
          | Total time for density update              :      111.951 s         111.955 s
          | Total time for mixing & preconditioning    :        3.361 s           3.360 s
          | Total time for Hartree multipole update    :        0.039 s           0.037 s
          | Total time for Hartree multipole sum       :        8.028 s           8.028 s
          | Total time for total energy evaluation     :        0.018 s           0.020 s
          | Total time for scaled ZORA corrections     :        0.000 s           0.000 s

          Partial memory accounting:
          | Residual value for overall tracked memory usage across tasks:     0.000000 MB (should be 0.000000 MB)
          | Peak values for overall tracked memory usage:
          |   Minimum:       64.066 MB (on task  1 after allocating wave)
          |   Maximum:       67.396 MB (on task 16 after allocating wave)
          |   Average:       65.542 MB
          | Largest tracked array allocation:
          |   Minimum:       35.530 MB (hamiltonian_shell on task  1)
          |   Maximum:       38.658 MB (hamiltonian_shell on task 16)
          |   Average:       36.926 MB
          Note:  These values currently only include a subset of arrays which are explicitly tracked.
          The "true" memory usage will be greater.

          Have a nice day.
------------------------------------------------------------
