  MPI-parallelism will be employed.
------------------------------------------------------------
          Invoking FHI-aims ...
          Version 171221_1
          Compiled on 2018/11/06 at 11:18:49 on host headnode.

          When using FHI-aims, please cite the following reference:

          Volker Blum, Ralf Gehrke, Felix Hanke, Paula Havu,
          Ville Havu, Xinguo Ren, Karsten Reuter, and Matthias Scheffler,
          'Ab Initio Molecular Simulations with Numeric Atom-Centered Orbitals',
          Computer Physics Communications 180, 2175-2196 (2009)

          For any questions about FHI-aims, please visit the aimsclub website
          with its forums and wiki. Contributions to both the forums and the
          wiki are warmly encouraged - they are for you, and everyone is welcome there.

------------------------------------------------------------



  Date     :  20191111, Time     :  143357.475
  Time zero on CPU 1             :   0.420000000000000E+00  s.
  Internal wall clock time zero  :           342714837.475  s.

  FHI-aims created a unique identifier for this run for later identification
  aims_uuid : 8AE391E6-796B-47C2-A455-EE3F9EEE9DE4

  Using       80 parallel tasks.
  Task        0 on host t025 reporting.
  Task        1 on host t025 reporting.
  Task        2 on host t025 reporting.
  Task        3 on host t025 reporting.
  Task        4 on host t025 reporting.
  Task        5 on host t025 reporting.
  Task        6 on host t025 reporting.
  Task        7 on host t025 reporting.
  Task        8 on host t025 reporting.
  Task        9 on host t025 reporting.
  Task       10 on host t025 reporting.
  Task       11 on host t025 reporting.
  Task       12 on host t025 reporting.
  Task       13 on host t025 reporting.
  Task       14 on host t025 reporting.
  Task       15 on host t025 reporting.
  Task       16 on host t025 reporting.
  Task       17 on host t025 reporting.
  Task       18 on host t025 reporting.
  Task       19 on host t025 reporting.
  Task       20 on host t024 reporting.
  Task       21 on host t024 reporting.
  Task       22 on host t024 reporting.
  Task       23 on host t024 reporting.
  Task       24 on host t024 reporting.
  Task       25 on host t024 reporting.
  Task       26 on host t024 reporting.
  Task       27 on host t024 reporting.
  Task       28 on host t024 reporting.
  Task       29 on host t024 reporting.
  Task       30 on host t024 reporting.
  Task       31 on host t024 reporting.
  Task       32 on host t024 reporting.
  Task       33 on host t024 reporting.
  Task       34 on host t024 reporting.
  Task       35 on host t024 reporting.
  Task       36 on host t024 reporting.
  Task       37 on host t024 reporting.
  Task       38 on host t024 reporting.
  Task       39 on host t024 reporting.
  Task       40 on host t023 reporting.
  Task       41 on host t023 reporting.
  Task       42 on host t023 reporting.
  Task       43 on host t023 reporting.
  Task       44 on host t023 reporting.
  Task       45 on host t023 reporting.
  Task       46 on host t023 reporting.
  Task       47 on host t023 reporting.
  Task       48 on host t023 reporting.
  Task       49 on host t023 reporting.
  Task       50 on host t023 reporting.
  Task       51 on host t023 reporting.
  Task       52 on host t023 reporting.
  Task       53 on host t023 reporting.
  Task       54 on host t023 reporting.
  Task       55 on host t023 reporting.
  Task       56 on host t023 reporting.
  Task       57 on host t023 reporting.
  Task       58 on host t023 reporting.
  Task       59 on host t023 reporting.
  Task       60 on host t022 reporting.
  Task       61 on host t022 reporting.
  Task       62 on host t022 reporting.
  Task       63 on host t022 reporting.
  Task       64 on host t022 reporting.
  Task       65 on host t022 reporting.
  Task       66 on host t022 reporting.
  Task       67 on host t022 reporting.
  Task       68 on host t022 reporting.
  Task       69 on host t022 reporting.
  Task       70 on host t022 reporting.
  Task       71 on host t022 reporting.
  Task       72 on host t022 reporting.
  Task       73 on host t022 reporting.
  Task       74 on host t022 reporting.
  Task       75 on host t022 reporting.
  Task       76 on host t022 reporting.
  Task       77 on host t022 reporting.
  Task       78 on host t022 reporting.
  Task       79 on host t022 reporting.

  Performing system and environment tests:
  | Environment variable OMP_NUM_THREADS correctly set to 1.
  | Stacksize not measured: no C compiler
  | Checking for scalapack...
  | Testing pdtran()...
  | All pdtran() tests passed.

  Obtaining array dimensions for all initial allocations:
  
  -----------------------------------------------------------------------
  Parsing control.in (first pass over file, find array dimensions only).
  The contents of control.in will be repeated verbatim below
  unless switched off by setting 'verbatim_writeout .false.' .
  in the first line of control.in .
  -----------------------------------------------------------------------
  
  #===============================================================================
  # FHI-aims file: ./control.in
  # Created using the Atomic Simulation Environment (ASE)
  # Mon Nov 11 14:33:51 2019
  #
  # List of parameters used to initialize the calculator:
  #     species_dir : /chemsoft/FHI-aims/stable/species_defaults/tight
  #     k_grid : [12, 12, 1]
  #     xc : pbe
  #     adjust_scf : once 2
  #     relativistic : ('atomic_zora', 'scalar')
  #     spin : none
  #===============================================================================
  k_grid                             12 12 1
  xc                                 pbe
  adjust_scf                         once 2
  ### band structure section
  output band 0.000000 0.000000 0.000000    0.500000 0.000000 0.000000  31  G M
  output band 0.500000 0.000000 0.000000    0.333333 0.333333 0.000000  31  M K
  output band 0.333333 0.333333 0.000000    0.000000 0.000000 0.000000  31  K G
  ### DOS section
  output atom_proj_dos  -10 0 300 0.05
  dos_kgrid_factors 4 4 4
  relativistic                       atomic_zora scalar
  include_spin_orbit
  spin                               none
  #===============================================================================
  
  ################################################################################
  #
  #  FHI-aims code project
  # Volker Blum, Fritz Haber Institute Berlin, 2009
  #
  #  Suggested "tight" defaults for Mo atom (to be pasted into control.in file)
  #
  ################################################################################
    species        Mo
  #     global species definitions
      nucleus             42
      mass                95.94
  #
      l_hartree           6
  #
      cut_pot             4.0  2.0  1.0
      basis_dep_cutoff    1e-4
  #
      radial_base         59 7.0
      radial_multiplier   2
      angular_grids specified
        division   0.3117   50
        division   0.6750  110
        division   1.0351  194
        division   1.2073  302
        division   1.6402  434
  #      division   1.9185  590
  #      division   2.0237  770
  #      division   2.0980  974
  #      division   2.7972 1202
  #      outer_grid  974
        outer_grid  434
  ################################################################################
  #
  #  Definition of "minimal" basis
  #
  ################################################################################
  #     valence basis states
      valence      5  s   1.
      valence      4  p   6.
      valence      4  d   5.
  #     ion occupancy
      ion_occ     5  s   0.
      ion_occ     4  p   6.
      ion_occ     4  d   4.
  ################################################################################
  #
  #  Suggested additional basis functions. For production calculations,
  #  uncomment them one after another (the most important basis functions are
  #  listed first).
  #
  #  Constructed for dimers: 1.675 A, 1.9 A, 2.375 A, 3.00 A, 4.00 A
  #
  ################################################################################
  #  "First tier"  - max. impr. -711.23  meV, min. impr. -21.07 meV
       hydro 4 f 8.4
       hydro 3 d 2.8
       ionic 5 p auto
       hydro 5 g 12
       ionic 5 s auto
  #  "Second tier" - max. impr. -39.38  meV, min. impr. -2.68 meV
       hydro 4 f 12.4
       hydro 3 d 3.3
       hydro 6 h 17.2
       hydro 4 f 7.6
       hydro 3 p 3.0
       hydro 1 s 0.65
  #  "Third tier"  - max. impr. -5.50 meV, min. impr. -0.47 meV
  #     hydro 4 f 29.2
  #     hydro 5 g 11.2
  #     hydro 3 d 6.8
  #     hydro 6 h 14.8
  #     hydro 2 p 2.3
  #     hydro 4 s 3.8
  #  "Fourth tier"  - max. impr. -0.58 meV, min. impr. -0.19 meV
  #     hydro 5 f 6.8
  #     hydro 5 d 14.8
  #     hydro 6 s 7.8
  #     hydro 5 g 20.8
  #     hydro 5 d 10.4
  #     hydro 5 p 9.8
  #  Further functions - -0.17 meV and below
  #     hydro 5 d 3.2
  ################################################################################
  #
  #  FHI-aims code project
  # Volker Blum, Fritz Haber Institute Berlin, 2009
  #
  #  Suggested "tight" defaults for S atom (to be pasted into control.in file)
  #
  #  Revised Jan 04, 2011, following tests (SiC) done by Lydia Nemec:
  #     d and g functions of tier 2 now enabled by default.
  #
  ################################################################################
    species        S
  #     global species definitions
      nucleus             16
      mass                32.065
  #
      l_hartree           6
  #
      cut_pot             4.0          2.0  1.0
      basis_dep_cutoff    1e-4
  #
      radial_base         44 7.0
      radial_multiplier   2
      angular_grids       specified
        division   0.4665  110
        division   0.5810  194
        division   0.7139  302
        division   0.8274  434
  #      division   0.9105  590
  #      division   1.0975  770
  #      division   1.2028  974
  #      outer_grid  974
        outer_grid  434
  ################################################################################
  #
  #  Definition of "minimal" basis
  #
  ################################################################################
  #     valence basis states
      valence      3  s   2.
      valence      3  p   4.
  #     ion occupancy
      ion_occ      3  s   1.
      ion_occ      3  p   3.
  ################################################################################
  #
  #  Suggested additional basis functions. For production calculations,
  #  uncomment them one after another (the most important basis functions are
  #  listed first).
  #
  #  Constructed for dimers: 1.6 A, 1.9 A, 2.5 A, 3.25 A, 4.0 A
  #
  ################################################################################
  #  "First tier" - improvements: -652.81 meV to -45.53 meV
       ionic 3 d auto
       hydro 2 p 1.8
       hydro 4 f 7
       ionic 3 s auto
  #  "Second tier" - improvements: -30.20 meV to -1.74 meV
       hydro 4 d 6.2
       hydro 5 g 10.8
       hydro 4 p 4.9
       hydro 5 f 10
       hydro 1 s 0.8
  #  "Third tier" - improvements: -1.04 meV to -0.20 meV
  #     hydro 3 d 3.9
  #     hydro 3 d 2.7
  #     hydro 5 g 12
  #     hydro 4 p 10.4
  #     hydro 5 f 12.4
  #     hydro 2 s 1.9
  #  "Fourth tier" - improvements: -0.35 meV to -0.06 meV
  #     hydro 4 d 10.4
  #     hydro 4 p 7.2
  #     hydro 4 d 10
  #     hydro 5 g 19.2
  #     hydro 4 s 12
  #
  ################################################################################
  #
  # For methods that use the localized form of the "resolution of identity" for
  # the two-electron Coulomb operator (RI_method LVL), particularly Hartree-Fock and
  # hybrid density functional calculations, the highest accuracy can be obtained by
  # uncommenting the line beginning with "for_aux"  below, thus adding an extra g radial
  # function to the construction of the product basis set for the expansion.
  # See Ref. New J. Phys. 17, 093020 (2015) for more information, particularly Figs. 1 and 6.
  #
  ################################################################################
  #
  # for_aux hydro 5 g 6.0
  
  -----------------------------------------------------------------------
  Completed first pass over input file control.in .
  -----------------------------------------------------------------------
  
  
  -----------------------------------------------------------------------
  Parsing geometry.in (first pass over file, find array dimensions only).
  The contents of geometry.in will be repeated verbatim below
  unless switched off by setting 'verbatim_writeout .false.' .
  in the first line of geometry.in .
  -----------------------------------------------------------------------
  
  #=======================================================
  # FHI-aims file: ./geometry.in
  # Created using the Atomic Simulation Environment (ASE)
  # Mon Nov 11 14:33:51 2019
  #=======================================================
  lattice_vector 3.1840664646845900 0.0000000000000000 0.0000000000000000
  lattice_vector -1.5920332323423001 2.7574824457549600 0.0000000000000000
  lattice_vector 0.0000000000000000 0.0000000000000000 100.0000000000000000
  atom 0.0000000000000000 0.0000000000000000 9.0635563200000000 Mo
  atom 1.5920332300000000 0.9191608200000000 10.6271126500000008 S
  atom 1.5920332300000000 0.9191608200000000 7.5000000000000000 S
  
  -----------------------------------------------------------------------
  Completed first pass over input file geometry.in .
  -----------------------------------------------------------------------
  

  Basic array size parameters:
  | Number of species                 :        2
  | Number of atoms                   :        3
  | Number of lattice vectors         :        3
  | Max. basis fn. angular momentum   :        5
  | Max. atomic/ionic basis occupied n:        5
  | Max. number of basis fn. types    :        3
  | Max. radial fns per species/type  :       10
  | Max. logarithmic grid size        :     1436
  | Max. radial integration grid size :      119
  | Max. angular integration grid size:      434
  | Max. angular grid division number :        8
  | Radial grid for Hartree potential :     1436
  | Number of spin channels           :        1

------------------------------------------------------------
          Reading file control.in.
------------------------------------------------------------
  Found k-point grid:        12        12         1
  XC: Using PBE gradient-corrected functionals.
  S.C.F. convergence parameters will be adjusted in iteration number     2 of the first full s.c.f. cycle only.

  Plot band    1
  | begin  0.000000  0.000000  0.000000
  | end    0.500000  0.000000  0.000000
  | number of points:   31

  Plot band    2
  | begin  0.500000  0.000000  0.000000
  | end    0.333333  0.333333  0.000000
  | number of points:   31

  Plot band    3
  | begin  0.333333  0.333333  0.000000
  | end    0.000000  0.000000  0.000000
  | number of points:   31
  Calculating atom-projected density of states with
  | energy interval :-10.000000  0.000000
  | points & broadening :   300  0.050000
  Found k-point grid multipliers for perturbative DOS :         4         4         4
  Scalar relativistic treatment of kinetic energy: on-site free-atom approximation to ZORA.
  Calculating non-self-consistent second-variational spin-orbit coupling after scf-cycle
  Spin treatment: No spin polarisation.
 
  Reading configuration options for species Mo                  .
  | Found nuclear charge :  42.0000
  | Found atomic mass :    95.9400000000000      amu
  | Found l_max for Hartree potential  :   6
  | Found cutoff potl. onset [A], width [A], scale factor :    4.00000    2.00000    1.00000
  | Threshold for basis-dependent cutoff potential is   0.100000E-03
  | Found data for basic radial integration grid :    59 points, outermost radius =    7.000 A
  | Found multiplier for basic radial grid :   2
  | Found angular grid specification: user-specified.
  | Specified grid contains     6 separate shells.
  | Check grid settings after all constraints further below.
  | Found free-atom valence shell :  5 s   1.000
  | Found free-atom valence shell :  4 p   6.000
  | Found free-atom valence shell :  4 d   5.000
  | Found free-ion valence shell :  5 s   0.000
  | Found free-ion valence shell :  4 p   6.000
  | Found free-ion valence shell :  4 d   4.000
  | Found hydrogenic basis function :  4 f   8.400
  | Found hydrogenic basis function :  3 d   2.800
  | Found ionic basis function :  5 p , default cutoff radius.
  | Found hydrogenic basis function :  5 g  12.000
  | Found ionic basis function :  5 s , default cutoff radius.
  | Found hydrogenic basis function :  4 f  12.400
  | Found hydrogenic basis function :  3 d   3.300
  | Found hydrogenic basis function :  6 h  17.200
  | Found hydrogenic basis function :  4 f   7.600
  | Found hydrogenic basis function :  3 p   3.000
  | Found hydrogenic basis function :  1 s   0.650
  Species Mo                  : Missing cutoff potential type.
  Defaulting to exp(1/x)/(1-x)^2 type cutoff potential.
  Species Mo: No 'logarithmic' tag. Using default grid for free atom:
  | Default logarithmic grid data [bohr] : 0.1000E-03 0.1000E+03 0.1012E+01
  | Will include ionic basis functions of  2.0-fold positive Mo                   ion.
  Species Mo: On-site basis accuracy parameter (for Gram-Schmidt orthonormalisation) not specified.
  Using default value basis_acc =  0.1000000E-03.
  Species Mo                  : Using default innermost maximum threshold i_radial=  2 for radial functions.
  Species Mo                  : Default cutoff onset for free atom density etc. : 0.40000000E+01 AA.
  Species Mo                  : Basic radial grid will be enhanced according to radial_multiplier =   2, to contain   119 grid points.
 
  Reading configuration options for species S                   .
  | Found nuclear charge :  16.0000
  | Found atomic mass :    32.0650000000000      amu
  | Found l_max for Hartree potential  :   6
  | Found cutoff potl. onset [A], width [A], scale factor :    4.00000    2.00000    1.00000
  | Threshold for basis-dependent cutoff potential is   0.100000E-03
  | Found data for basic radial integration grid :    44 points, outermost radius =    7.000 A
  | Found multiplier for basic radial grid :   2
  | Found angular grid specification: user-specified.
  | Specified grid contains     5 separate shells.
  | Check grid settings after all constraints further below.
  | Found free-atom valence shell :  3 s   2.000
  | Found free-atom valence shell :  3 p   4.000
  | Found free-ion valence shell :  3 s   1.000
  | Found free-ion valence shell :  3 p   3.000
  | Found ionic basis function :  3 d , default cutoff radius.
  | Found hydrogenic basis function :  2 p   1.800
  | Found hydrogenic basis function :  4 f   7.000
  | Found ionic basis function :  3 s , default cutoff radius.
  | Found hydrogenic basis function :  4 d   6.200
  | Found hydrogenic basis function :  5 g  10.800
  | Found hydrogenic basis function :  4 p   4.900
  | Found hydrogenic basis function :  5 f  10.000
  | Found hydrogenic basis function :  1 s   0.800
  Species S                   : Missing cutoff potential type.
  Defaulting to exp(1/x)/(1-x)^2 type cutoff potential.
  Species S : No 'logarithmic' tag. Using default grid for free atom:
  | Default logarithmic grid data [bohr] : 0.1000E-03 0.1000E+03 0.1012E+01
  | Will include ionic basis functions of  2.0-fold positive S                    ion.
  Species S : On-site basis accuracy parameter (for Gram-Schmidt orthonormalisation) not specified.
  Using default value basis_acc =  0.1000000E-03.
  Species S                   : Using default innermost maximum threshold i_radial=  2 for radial functions.
  Species S                   : Default cutoff onset for free atom density etc. : 0.40000000E+01 AA.
  Species S                   : Basic radial grid will be enhanced according to radial_multiplier =   2, to contain    89 grid points.
 
  Finished reading input file 'control.in'. Consistency checks are next.
 
  MPI_IN_PLACE appears to work with this MPI implementation.
  | Keeping use_mpi_in_place .true. (see manual).
  Target number of points in a grid batch is not set. Defaulting to  100
  Method for grid partitioning is not set. Defaulting to parallel hash+maxmin partitioning.
  Batch size limit is not set. Defaulting to    200
  By default, will store active basis functions for each batch.
  If in need of memory, prune_basis_once .false. can be used to disable this option.
  communication_type for Hartree potential was not specified.
  Defaulting to calc_hartree .
  Defaulting to Pulay charge density mixer.
  Pulay mixer: Number of relevant iterations not set.
  Defaulting to    8 iterations.
  Pulay mixer: Number of initial linear mixing iterations not set.
  Defaulting to    0 iterations.
  Work space size for distributed Hartree potential not set.
  Defaulting to   0.200000E+03 MB.
  Mixing parameter for charge density mixing has not been set.
  Using default: charge_mix_param =     0.0500.
  The mixing parameter will be adjusted in iteration number     2 of the first full s.c.f. cycle only.
  Algorithm-dependent basis array size parameters:
  | n_max_pulay                         :        8
 * Notice: The s.c.f. convergence criterion sc_accuracy_rho was not provided.
 * We used to stop in this case, and ask the user to provide reasonable
 * scf convergence criteria. However, this led some users to employ criteria
 * that led to extremely long run times, e.g., for simple relaxation.
 * We now preset a default value for sc_accuracy_rho if it is not set.
 * You may still wish to check if this setting is too tight or too loose for your needs.
 * Based on n_atoms, FHI-aims chose sc_accuracy_rho =  0.100000E-05 .
  Maximum number of self-consistency iterations not provided.
  Presetting  1000 iterations.
  Presetting      1001 iterations before the initial mixing cycle
  is restarted anyway using the sc_init_iter criterion / keyword.
  Presetting a factor      1.000 between actual scf density residual
  and density convergence criterion sc_accuracy_rho below which sc_init_iter
  takes no effect.
 * No s.c.f. convergence criteria (sc_accuracy_*) were provided in control.in.
 * The run will proceed with a reasonable default guess, but please check whether.
 * the s.c.f. cycles seem to take too much or too little time.
  Calculation of forces was not defined in control.in. No forces will be calculated.
  Geometry relaxation not requested: no relaxation will be performed.
  No accuracy limit for integral partition fn. given. Defaulting to  0.1000E-14.
  No threshold value for u(r) in integrations given. Defaulting to  0.1000E-05.
  No occupation type (smearing scheme) given. Defaulting to Gaussian broadening, width =  0.1000E-01 eV.
  The width will be adjusted in iteration number     2 of the first full s.c.f. cycle only.
  S.C.F. convergence parameters will be adjusted in iteration number     2 of the first full s.c.f. cycle only.
  No accuracy for occupation numbers given. Defaulting to  0.1000E-12.
  No threshold value for occupation numbers given. Defaulting to  0.0000E+00.
  No accuracy for fermi level given. Defaulting to  0.1000E-19.
  Maximum # of iterations to find E_F not set. Defaulting to  200.
  Preferred method for the eigenvalue solver ('KS_method') not specified in 'control.in'.
  Defaulting to serial version, 'lapack_fast', since more k-points than CPUs available.
  Will not use alltoall communication since running on < 1024 CPUs.
  Threshold for basis singularities not set.
  Default threshold for basis singularities:  0.1000E-04
  partition_type (choice of integration weights) for integrals was not specified.
  | Using a version of the partition function of Stratmann and coworkers ('stratmann_smoother').
  | At each grid point, the set of atoms used to build the partition table is smoothly restricted to
  | only those atoms whose free-atom density would be non-zero at that grid point.
  Partitioning for Hartree potential was not defined. Using partition_type for integrals.
  | Adjusted default value of keyword multip_moments_threshold to:       0.10000000E-11
  | This value may affect high angular momentum components of the Hartree potential in periodic systems.
  Angular momentum expansion for Kerker preconditioner not set explicitly.
  | Using default value of   0
  No explicit requirement for turning off preconditioner.
  | By default, it will be turned off when the charge convergence reaches
  | sc_accuracy_rho  =   0.100000E-05
  No special mixing parameter while Kerker preconditioner is on.
  Using default: charge_mix_param =     0.0500.
  No q(lm)/r^(l+1) cutoff set for long-range Hartree potential.
  | Using default value of  0.100000E-09 .
  | Verify using the multipole_threshold keyword.
  Defaulting to new monopole extrapolation.
  Density update method: automatic selection selected.
  Using density matrix based charge density update.
  Using density matrix based charge density update.
  Using packed matrix style: index .
  Defaulting to use time-reversal symmetry for k-point grid.
 * Warning. Found "dos_kgrid_factors" request but neither a DOS nor
 * postscf_eigenvalues are requested. dos_kgrid_factors will be ignored.
------------------------------------------------------------


------------------------------------------------------------
          Reading geometry description geometry.in.
------------------------------------------------------------
  Input structure read successfully.
  The structure contains        3 atoms,  and a total of         74.000 electrons.

  Input geometry:
  | Unit cell:
  |        3.18406646        0.00000000        0.00000000
  |       -1.59203323        2.75748245        0.00000000
  |        0.00000000        0.00000000      100.00000000
  | Atomic structure:
  |       Atom                x [A]            y [A]            z [A]
  |    1: Species Mo            0.00000000        0.00000000        9.06355632
  |    2: Species S             1.59203323        0.91916082       10.62711265
  |    3: Species S             1.59203323        0.91916082        7.50000000

  Lattice parameters for 3D lattice (in Angstroms) :     3.184066    3.184066  100.000000
  Angle(s) between unit vectors (in degrees)      :    90.000000   90.000000  120.000000

  |

  | The smallest distance between any two atoms is         2.41332442 AA.
  |
  | The first atom of this pair is atom number                      1 .
  | The second atom of this pair is atom number                     3 .
  | Wigner-Seitz cell of the first atom image           0     1     0 .
  | (The Wigner-Seitz cell of the second atom is 0 0 0  by definition.)

  Quantities derived from the lattice vectors:
  | Reciprocal lattice vector 1:  1.973321  1.139297  0.000000
  | Reciprocal lattice vector 2: -0.000000  2.278595  0.000000
  | Reciprocal lattice vector 3:  0.000000  0.000000  0.062832
  | Unit cell volume                               :   0.878001E+03  A^3

  Range separation radius for Ewald summation (hartree_convergence_parameter):      5.00000000 bohr.

  Fractional coordinates:
                         L1                L2                L3
       atom_frac         0.00000000        0.00000000        0.09063556  Mo
       atom_frac         0.66666667        0.33333334        0.10627113  S
       atom_frac         0.66666667        0.33333334        0.07500000  S

  Number of empty states per atom not set in control.in - providing a guess from actual geometry.
  | Total number of empty states used during s.c.f. cycle:       12
  If you use a very high smearing, use empty_states (per atom!) in control.in to increase this value.

  Structure-dependent array size parameters: 
  | Maximum number of distinct radial functions  :       35
  | Maximum number of basis functions            :      183
  | Number of Kohn-Sham states (occupied + empty):       49
------------------------------------------------------------

------------------------------------------------------------
          Preparing all fixed parts of the calculation.
------------------------------------------------------------
  Determining machine precision:
    2.225073858507201E-308
  Setting up grids for atomic and cluster calculations.

  Creating wave function, potential, and density for free atoms.

  Species: Mo

  List of occupied orbitals and eigenvalues:
    n    l              occ      energy [Ha]    energy [eV]
    1    0           2.0000      -745.344654    -20281.8600
    2    0           2.0000      -103.288246     -2810.6162
    3    0           2.0000       -17.516687      -476.6533
    4    0           2.0000        -2.358559       -64.1796
    5    0           1.0000        -0.145159        -3.9500
    2    1           6.0000       -92.308627     -2511.8455
    3    1           6.0000       -13.936005      -379.2180
    4    1           6.0000        -1.408138       -38.3174
    3    2          10.0000        -8.119011      -220.9295
    4    2           5.0000        -0.132984        -3.6187


  Species: S

  List of occupied orbitals and eigenvalues:
    n    l              occ      energy [Ha]    energy [eV]
    1    0           2.0000       -88.680731     -2413.1255
    2    0           2.0000        -7.781719      -211.7513
    3    0           2.0000        -0.633662       -17.2428
    2    1           6.0000        -5.751976      -156.5192
    3    1           4.0000        -0.257086        -6.9957

  Creating fixed part of basis set: Ionic, confined, hydrogenic.
 
  Mo                   ion:

  List of free ionic orbitals and eigenvalues:
    n    l      energy [Ha]    energy [eV]
    1    0      -746.048685    -20301.0176
    2    0      -103.980912     -2829.4646
    3    0       -18.206601      -495.4268
    4    0        -3.040545       -82.7374
    2    1       -93.001013     -2530.6863
    3    1       -14.625827      -397.9890
    4    1        -2.084855       -56.7318
    3    2        -8.808854      -239.7011
    4    2        -0.765435       -20.8285


  List of ionic basis orbitals and eigenvalues:
    n    l      energy [Ha]    energy [eV]    outer radius [A]
    5    1        -0.465587       -12.6693       5.456393
    5    0        -0.650331       -17.6964       5.390095

 
  Mo                   hydrogenic:
 
  List of hydrogenic basis orbitals: 
    n    l      effective z      eigenvalue [eV]  inner max. [A]     outer max. [A]     outer radius [A]   
    4    3         8.400000       -60.0010           1.009788           1.009788           4.487018
    3    2         2.800000       -11.8048           1.687401           1.687401           5.456393
    5    4        12.000000       -78.3687           1.100005           1.100005           4.432498
    4    3        12.400000      -130.7506           0.682864           0.682864           3.428897
    3    2         3.300000       -16.4532           1.439455           1.439455           5.456393
    6    5        17.200000      -111.8085           1.113535           1.113535           4.169676
    4    3         7.600000       -49.1164           1.113535           1.113535           4.828511
    3    1         3.000000       -13.5316           0.528251           2.102736           5.456393
    1    0         0.650000        -5.7375           0.810333           0.810333           5.456393
 
 
  S                    ion:

  List of free ionic orbitals and eigenvalues:
    n    l      energy [Ha]    energy [eV]
    1    0       -89.703778     -2440.9640
    2    0        -8.775428      -238.7916
    3    0        -1.470343       -40.0101
    2    1        -6.747660      -183.6132
    3    1        -1.048627       -28.5346


  List of ionic basis orbitals and eigenvalues:
    n    l      energy [Ha]    energy [eV]    outer radius [A]
    3    2        -0.495605       -13.4861       5.386362
    3    0        -1.470336       -40.0099       3.967934

 
  S                    hydrogenic:
 
  List of hydrogenic basis orbitals: 
    n    l      effective z      eigenvalue [eV]  inner max. [A]     outer max. [A]     outer radius [A]   
    2    1         1.800000       -11.0118           1.168531           1.168531           5.452614
    4    3         7.000000       -41.6672           1.212182           1.212182           5.066981
    4    2         6.200000       -32.6848           0.582121           1.814567           5.386362
    5    4        10.800000       -63.4785           1.227092           1.227092           4.766538
    4    1         4.900000       -20.2928           0.304525           2.524192           5.452614
    5    3        10.000000       -54.4226           0.641929           1.727969           5.320915
    1    0         0.800000        -8.7059           0.657818           0.657818           5.386362
 

  Adding cutoff potential to free-atom effective potential.
  Creating atomic-like basis functions for current effective potential.

  Species Mo                  :

  List of atomic basis orbitals and eigenvalues:
    n    l      energy [Ha]    energy [eV]    outer radius [A]
    1    0      -745.344654    -20281.8600       0.247552
    2    0      -103.288246     -2810.6162       0.682864
    3    0       -17.516687      -476.6533       1.626637
    4    0        -2.358559       -64.1796       4.220963
    5    0        -0.145159        -3.9500       5.456393
    2    1       -92.308627     -2511.8455       0.699766
    3    1       -13.936005      -379.2180       1.793761
    4    1        -1.408138       -38.3174       4.828511
    3    2        -8.119011      -220.9295       2.181285
    4    2        -0.132984        -3.6187       5.390095


  Species S                   :

  List of atomic basis orbitals and eigenvalues:
    n    l      energy [Ha]    energy [eV]    outer radius [A]
    1    0       -88.680731     -2413.1255       0.682391
    2    0        -7.781719      -211.7513       2.289014
    3    0        -0.633662       -17.2428       5.256262
    2    1        -5.751976      -156.5192       2.555240
    3    1        -0.257086        -6.9957       5.386362

  Assembling full basis from fixed parts.
  | Species Mo :   atomic orbital   1 s accepted.
  | Species Mo :   atomic orbital   2 s accepted.
  | Species Mo :   atomic orbital   3 s accepted.
  | Species Mo :   atomic orbital   4 s accepted.
  | Species Mo :    ionic orbital   5 s accepted.
  | Species Mo :   atomic orbital   5 s accepted.
  | Species Mo :    hydro orbital   1 s accepted.
  | Species Mo :   atomic orbital   2 p accepted.
  | Species Mo :   atomic orbital   3 p accepted.
  | Species Mo :   atomic orbital   4 p accepted.
  | Species Mo :    ionic orbital   5 p accepted.
  | Species Mo :    hydro orbital   3 p accepted.
  | Species Mo :   atomic orbital   3 d accepted.
  | Species Mo :   atomic orbital   4 d accepted.
  | Species Mo :    hydro orbital   3 d accepted.
  | Species Mo :    hydro orbital   3 d accepted.
  | Species Mo :    hydro orbital   4 f accepted.
  | Species Mo :    hydro orbital   4 f accepted.
  | Species Mo :    hydro orbital   4 f accepted.
  | Species Mo :    hydro orbital   5 g accepted.
  | Species Mo :    hydro orbital   6 h accepted.
  | Species S :   atomic orbital   1 s accepted.
  | Species S :   atomic orbital   2 s accepted.
  | Species S :    ionic orbital   3 s accepted.
  | Species S :   atomic orbital   3 s accepted.
  | Species S :    hydro orbital   1 s accepted.
  | Species S :   atomic orbital   2 p accepted.
  | Species S :   atomic orbital   3 p accepted.
  | Species S :    hydro orbital   2 p accepted.
  | Species S :    hydro orbital   4 p accepted.
  | Species S :    ionic orbital   3 d accepted.
  | Species S :    hydro orbital   4 d accepted.
  | Species S :    hydro orbital   4 f accepted.
  | Species S :    hydro orbital   5 f accepted.
  | Species S :    hydro orbital   5 g accepted.
 
  Basis size parameters after reduction:
  | Total number of radial functions:       35
  | Total number of basis functions :      183
 
  Per-task memory consumption for arrays in subroutine allocate_ext:
  |          12.872848MB.
  Testing on-site integration grid accuracy.
  |  Species  Function  <phi|h_atom|phi> (log., in eV)  <phi|h_atom|phi> (rad., in eV)
           1        1             -20281.8599610543             -20281.8584300616
           1        2              -2810.6161812280              -2810.6161551921
           1        3               -476.6533163555               -476.6533136395
           1        4                -64.1796433667                -64.1796426456
           1        5                 -3.3691762756                 -3.3691802887
           1        6                  4.4704608512                  4.4699102345
           1        7                 47.6285199283                 47.6283663304
           1        8              -2511.8455406047              -2511.8455385741
           1        9               -379.2179896350               -379.2179882338
           1       10                -38.3173891619                -38.3173886619
           1       11                  0.2493245095                  0.2492931069
           1       12                 12.9899978429                 12.9896957264
           1       13               -220.9295301098               -220.9295297081
           1       14                 -3.6195697699                 -3.6195754704
           1       15                  7.1428000922                  7.1426882355
           1       16                 20.1860643586                 20.1854440119
           1       17                 39.6800378350                 39.6800378704
           1       18                 41.9987405107                 41.9987406673
           1       19                 51.4938078473                 51.4938137886
           1       20                 50.2449608881                 50.2449608586
           1       21                 84.8920029004                 84.8920028797
           2       22              -2413.1254568977              -2413.1254096663
           2       23               -211.7513411281               -211.7513404762
           2       24                -16.9725280787                -16.9725279206
           2       25                  7.6024436204                  7.6024549059
           2       26                 48.5754986812                 48.5751292874
           2       27               -156.5192206929               -156.5192205451
           2       28                 -6.9959757887                 -6.9959777655
           2       29                  6.8896462808                  6.8895564741
           2       30                 27.2255287135                 27.2252601701
           2       31                  6.0214250550                  6.0214220200
           2       32                 19.6206468977                 19.6206494558
           2       33                 24.7008710786                 24.7008710738
           2       34                 58.2239314521                 58.2239319465
           2       35                 47.5292252001                 47.5292260486

  Preparing densities etc. for the partition functions (integrals / Hartree potential).

  Preparations completed.
  max(cpu_time)          :      0.436 s.
  Wall clock time (cpu1) :      0.433 s.
------------------------------------------------------------

------------------------------------------------------------
          Begin self-consistency loop: Initialization.

          Date     :  20191111, Time     :  143358.006
------------------------------------------------------------

  Initializing index lists of integration centers etc. from given atomic structure:
  Mapping all atomic coordinates to central unit cell.

  Initializing the k-points
          Using symmetry for reducing the k-points
  | k-points reduced from:      144 to       74
  | Number of k-points                             :        74
  The eigenvectors in the calculations are COMPLEX.
  | K-points in task   0:         0
  | K-points in task   1:         1
  | K-points in task   2:         1
  | K-points in task   3:         1
  | K-points in task   4:         1
  | K-points in task   5:         1
  | K-points in task   6:         1
  | K-points in task   7:         1
  | K-points in task   8:         1
  | K-points in task   9:         1
  | K-points in task  10:         1
  | K-points in task  11:         1
  | K-points in task  12:         1
  | K-points in task  13:         1
  | K-points in task  14:         1
  | K-points in task  15:         1
  | K-points in task  16:         1
  | K-points in task  17:         1
  | K-points in task  18:         1
  | K-points in task  19:         1
  | K-points in task  20:         1
  | K-points in task  21:         1
  | K-points in task  22:         1
  | K-points in task  23:         1
  | K-points in task  24:         1
  | K-points in task  25:         1
  | K-points in task  26:         1
  | K-points in task  27:         1
  | K-points in task  28:         1
  | K-points in task  29:         1
  | K-points in task  30:         1
  | K-points in task  31:         1
  | K-points in task  32:         1
  | K-points in task  33:         1
  | K-points in task  34:         1
  | K-points in task  35:         1
  | K-points in task  36:         1
  | K-points in task  37:         1
  | K-points in task  38:         1
  | K-points in task  39:         1
  | K-points in task  40:         1
  | K-points in task  41:         1
  | K-points in task  42:         1
  | K-points in task  43:         1
  | K-points in task  44:         1
  | K-points in task  45:         1
  | K-points in task  46:         1
  | K-points in task  47:         1
  | K-points in task  48:         1
  | K-points in task  49:         1
  | K-points in task  50:         1
  | K-points in task  51:         1
  | K-points in task  52:         1
  | K-points in task  53:         1
  | K-points in task  54:         1
  | K-points in task  55:         1
  | K-points in task  56:         1
  | K-points in task  57:         1
  | K-points in task  58:         1
  | K-points in task  59:         1
  | K-points in task  60:         1
  | K-points in task  61:         1
  | K-points in task  62:         1
  | K-points in task  63:         1
  | K-points in task  64:         1
  | K-points in task  65:         1
  | K-points in task  66:         1
  | K-points in task  67:         1
  | K-points in task  68:         1
  | K-points in task  69:         1
  | K-points in task  70:         1
  | K-points in task  71:         1
  | K-points in task  72:         1
  | K-points in task  73:         1
  | K-points in task  74:         1
  | K-points in task  75:         0
  | K-points in task  76:         0
  | K-points in task  77:         0
  | K-points in task  78:         0
  | K-points in task  79:         0
  | Number of basis functions in the Hamiltonian integrals :      3161
  | Number of basis functions in a single unit cell        :       183
  | Number of centers in hartree potential         :       375
  | Number of centers in hartree multipole         :       177
  | Number of centers in electron density summation:       153
  | Number of centers in basis integrals           :       171
  | Number of centers in integrals                 :        73
  | Number of centers in hamiltonian               :       153
  | Consuming         69 KiB for k_phase.
  | Number of super-cells (origin) [n_cells]                     :         867
  | Number of super-cells (after PM_index) [n_cells]             :          60
  | Number of super-cells in hamiltonian [n_cells_in_hamiltonian]:          60
  | Size of matrix packed + index [n_hamiltonian_matrix_size] :      538234
  Partitioning the integration grid into batches with parallel hashing+maxmin method.
  | Number of batches:     1014
  | Maximal batch size:     188
  | Minimal batch size:       2
  | Average batch size:      72.976
  | Standard deviation of batch sizes:      22.604

  Integration load balanced across    80 MPI tasks.
  Work distribution over tasks is as follows:
  Task     0 has        905 integration points.
  Task     1 has       1011 integration points.
  Task     2 has        928 integration points.
  Task     3 has        908 integration points.
  Task     4 has        939 integration points.
  Task     5 has        904 integration points.
  Task     6 has        907 integration points.
  Task     7 has        904 integration points.
  Task     8 has        898 integration points.
  Task     9 has        989 integration points.
  Task    10 has        900 integration points.
  Task    11 has        898 integration points.
  Task    12 has        919 integration points.
  Task    13 has       1060 integration points.
  Task    14 has        899 integration points.
  Task    15 has        901 integration points.
  Task    16 has        941 integration points.
  Task    17 has        895 integration points.
  Task    18 has        942 integration points.
  Task    19 has        902 integration points.
  Task    20 has        907 integration points.
  Task    21 has        991 integration points.
  Task    22 has        895 integration points.
  Task    23 has        897 integration points.
  Task    24 has        999 integration points.
  Task    25 has        936 integration points.
  Task    26 has        901 integration points.
  Task    27 has        900 integration points.
  Task    28 has        893 integration points.
  Task    29 has        896 integration points.
  Task    30 has        902 integration points.
  Task    31 has        908 integration points.
  Task    32 has        901 integration points.
  Task    33 has        891 integration points.
  Task    34 has        918 integration points.
  Task    35 has        942 integration points.
  Task    36 has       1007 integration points.
  Task    37 has        896 integration points.
  Task    38 has        897 integration points.
  Task    39 has        903 integration points.
  Task    40 has        905 integration points.
  Task    41 has        989 integration points.
  Task    42 has        934 integration points.
  Task    43 has        947 integration points.
  Task    44 has        900 integration points.
  Task    45 has        939 integration points.
  Task    46 has        899 integration points.
  Task    47 has        909 integration points.
  Task    48 has        944 integration points.
  Task    49 has        989 integration points.
  Task    50 has        898 integration points.
  Task    51 has        899 integration points.
  Task    52 has        900 integration points.
  Task    53 has        901 integration points.
  Task    54 has        993 integration points.
  Task    55 has        902 integration points.
  Task    56 has        930 integration points.
  Task    57 has        898 integration points.
  Task    58 has        950 integration points.
  Task    59 has        902 integration points.
  Task    60 has        897 integration points.
  Task    61 has        899 integration points.
  Task    62 has        898 integration points.
  Task    63 has        902 integration points.
  Task    64 has        949 integration points.
  Task    65 has        900 integration points.
  Task    66 has        991 integration points.
  Task    67 has        943 integration points.
  Task    68 has        899 integration points.
  Task    69 has        897 integration points.
  Task    70 has        895 integration points.
  Task    71 has        903 integration points.
  Task    72 has        898 integration points.
  Task    73 has        988 integration points.
  Task    74 has        984 integration points.
  Task    75 has       1041 integration points.
  Task    76 has        952 integration points.
  Task    77 has        901 integration points.
  Task    78 has        903 integration points.
  Task    79 has        900 integration points.
  Initializing partition tables, free-atom densities, potentials, etc. across the integration grid (initialize_grid_storage).
  | initialize_grid_storage: Actual outermost partition radius vs. multipole_radius_free
  | (-- VB: in principle, multipole_radius_free should be larger, hence this output)
  | Species        1: Confinement radius =              6.000000000000000 AA, multipole_radius_free =              6.016994434057369 AA.
  | Species        1: outer_partition_radius set to              6.016994434057369 AA .
  | Species        2: Confinement radius =              6.000000000000000 AA, multipole_radius_free =              6.012827091137924 AA.
  | Species        2: outer_partition_radius set to              6.012827091137924 AA .
  | Original list of interatomic distances with         171 x        171 entries is created.
  | Net number of integration points:    73998
  | of which are non-zero points    :    60068
  | Numerical average free-atom electrostatic potential    :     -1.10586232 eV
  Renormalizing the initial density to the exact electron count on the 3D integration grid.
  | Initial density: Formal number of electrons (from input files) :      74.0000000000
  | Integrated number of electrons on 3D grid     :      73.9999355065
  | Charge integration error                      :      -0.0000644935
  | Normalization factor for density and gradient :       1.0000008715
  Obtaining max. number of non-zero basis functions in each batch (get_n_compute_maxes).
  | Maximal number of non-zero basis functions:     1643 in task     0
  | Maximal number of non-zero basis functions:     1646 in task     1
  | Maximal number of non-zero basis functions:     1702 in task     2
  | Maximal number of non-zero basis functions:     1661 in task     3
  | Maximal number of non-zero basis functions:     1727 in task     4
  | Maximal number of non-zero basis functions:     1691 in task     5
  | Maximal number of non-zero basis functions:     1681 in task     6
  | Maximal number of non-zero basis functions:     1736 in task     7
  | Maximal number of non-zero basis functions:     1635 in task     8
  | Maximal number of non-zero basis functions:     1565 in task     9
  | Maximal number of non-zero basis functions:     1660 in task    10
  | Maximal number of non-zero basis functions:     1642 in task    11
  | Maximal number of non-zero basis functions:     1673 in task    12
  | Maximal number of non-zero basis functions:     1649 in task    13
  | Maximal number of non-zero basis functions:     1736 in task    14
  | Maximal number of non-zero basis functions:     1658 in task    15
  | Maximal number of non-zero basis functions:     1745 in task    16
  | Maximal number of non-zero basis functions:     1651 in task    17
  | Maximal number of non-zero basis functions:     1714 in task    18
  | Maximal number of non-zero basis functions:     1696 in task    19
  | Maximal number of non-zero basis functions:     1674 in task    20
  | Maximal number of non-zero basis functions:     1684 in task    21
  | Maximal number of non-zero basis functions:     1691 in task    22
  | Maximal number of non-zero basis functions:     1670 in task    23
  | Maximal number of non-zero basis functions:     1636 in task    24
  | Maximal number of non-zero basis functions:     1689 in task    25
  | Maximal number of non-zero basis functions:     1662 in task    26
  | Maximal number of non-zero basis functions:     1651 in task    27
  | Maximal number of non-zero basis functions:     1660 in task    28
  | Maximal number of non-zero basis functions:     1704 in task    29
  | Maximal number of non-zero basis functions:     1609 in task    30
  | Maximal number of non-zero basis functions:     1728 in task    31
  | Maximal number of non-zero basis functions:     1722 in task    32
  | Maximal number of non-zero basis functions:     1700 in task    33
  | Maximal number of non-zero basis functions:     1680 in task    34
  | Maximal number of non-zero basis functions:     1657 in task    35
  | Maximal number of non-zero basis functions:     1760 in task    36
  | Maximal number of non-zero basis functions:     1616 in task    37
  | Maximal number of non-zero basis functions:     1675 in task    38
  | Maximal number of non-zero basis functions:     1759 in task    39
  | Maximal number of non-zero basis functions:     1732 in task    40
  | Maximal number of non-zero basis functions:     1682 in task    41
  | Maximal number of non-zero basis functions:     1708 in task    42
  | Maximal number of non-zero basis functions:     1702 in task    43
  | Maximal number of non-zero basis functions:     1661 in task    44
  | Maximal number of non-zero basis functions:     1743 in task    45
  | Maximal number of non-zero basis functions:     1731 in task    46
  | Maximal number of non-zero basis functions:     1643 in task    47
  | Maximal number of non-zero basis functions:     1636 in task    48
  | Maximal number of non-zero basis functions:     1652 in task    49
  | Maximal number of non-zero basis functions:     1736 in task    50
  | Maximal number of non-zero basis functions:     1757 in task    51
  | Maximal number of non-zero basis functions:     1755 in task    52
  | Maximal number of non-zero basis functions:     1655 in task    53
  | Maximal number of non-zero basis functions:     1667 in task    54
  | Maximal number of non-zero basis functions:     1643 in task    55
  | Maximal number of non-zero basis functions:     1581 in task    56
  | Maximal number of non-zero basis functions:     1687 in task    57
  | Maximal number of non-zero basis functions:     1653 in task    58
  | Maximal number of non-zero basis functions:     1654 in task    59
  | Maximal number of non-zero basis functions:     1729 in task    60
  | Maximal number of non-zero basis functions:     1681 in task    61
  | Maximal number of non-zero basis functions:     1699 in task    62
  | Maximal number of non-zero basis functions:     1733 in task    63
  | Maximal number of non-zero basis functions:     1657 in task    64
  | Maximal number of non-zero basis functions:     1702 in task    65
  | Maximal number of non-zero basis functions:     1717 in task    66
  | Maximal number of non-zero basis functions:     1637 in task    67
  | Maximal number of non-zero basis functions:     1649 in task    68
  | Maximal number of non-zero basis functions:     1656 in task    69
  | Maximal number of non-zero basis functions:     1666 in task    70
  | Maximal number of non-zero basis functions:     1762 in task    71
  | Maximal number of non-zero basis functions:     1627 in task    72
  | Maximal number of non-zero basis functions:     1744 in task    73
  | Maximal number of non-zero basis functions:     1670 in task    74
  | Maximal number of non-zero basis functions:     1679 in task    75
  | Maximal number of non-zero basis functions:     1698 in task    76
  | Maximal number of non-zero basis functions:     1665 in task    77
  | Maximal number of non-zero basis functions:     1698 in task    78
  | Maximal number of non-zero basis functions:     1680 in task    79
  Allocating        0.000 MB for KS_eigenvector_complex
  Integrating Hamiltonian matrix: batch-based integration.
  Time summed over all CPUs for integration: real work       28.752 s, elapsed       32.023 s
  Integrating overlap matrix.
  Time summed over all CPUs for integration: real work       21.349 s, elapsed       23.936 s
  Decreasing sparse matrix size:
   Tolerance:  9.999999824516700E-014
   Hamiltonian matrix
  | Array has   463797 nonzero elements out of   538234 elements
  | Sparsity factor is 0.138
   Overlap matrix
  | Array has   419947 nonzero elements out of   538234 elements
  | Sparsity factor is 0.220
  New size of hamiltonian matrix:      465145

  Updating Kohn-Sham eigenvalues and eigenvectors using ELSI and the ELPA eigensolver.

  Obtaining occupation numbers and chemical potential using ELSI.
  | Chemical potential (Fermi level):    -4.05957905eV
  Writing Kohn-Sham eigenvalues.
  K-point:       1 at    0.000000    0.000000    0.000000 (in units of recip. lattice)

  State    Occupation    Eigenvalue [Ha]    Eigenvalue [eV]
      1       2.00000        -745.362026       -20282.33267
      2       2.00000        -103.306141        -2811.10313
      3       2.00000         -92.326511        -2512.33220
      4       2.00000         -92.326511        -2512.33220
      5       2.00000         -92.326496        -2512.33178
      6       2.00000         -88.712483        -2413.98950
      7       2.00000         -88.712483        -2413.98950
      8       2.00000         -17.536229         -477.18507
      9       2.00000         -13.955656         -379.75273
     10       2.00000         -13.955656         -379.75273
     11       2.00000         -13.955518         -379.74897
     12       2.00000          -8.138621         -221.46315
     13       2.00000          -8.138621         -221.46315
     14       2.00000          -8.138548         -221.46115
     15       2.00000          -8.138548         -221.46115
     16       2.00000          -8.138475         -221.45917
     17       2.00000          -7.816362         -212.69404
     18       2.00000          -7.816362         -212.69404
     19       2.00000          -5.786569         -157.46055
     20       2.00000          -5.786569         -157.46054
     21       2.00000          -5.786140         -157.44889
     22       2.00000          -5.786140         -157.44889
     23       2.00000          -5.786140         -157.44889
     24       2.00000          -5.786140         -157.44889
     25       2.00000          -2.394099          -65.14674
     26       2.00000          -1.454166          -39.56988
     27       2.00000          -1.444058          -39.29483
     28       2.00000          -1.444058          -39.29483
     29       2.00000          -0.777971          -21.16966
     30       2.00000          -0.728488          -19.82317
     31       2.00000          -0.451091          -12.27480
     32       2.00000          -0.327904           -8.92272
     33       2.00000          -0.327904           -8.92271
     34       2.00000          -0.320905           -8.73226
     35       2.00000          -0.291034           -7.91943
     36       2.00000          -0.291033           -7.91941
     37       2.00000          -0.215092           -5.85296
     38       0.00000          -0.126083           -3.43090
     39       0.00000          -0.126082           -3.43088
     40       0.00000          -0.121612           -3.30922
     41       0.00000          -0.121611           -3.30921
     42       0.00000          -0.024562           -0.66838
     43       0.00000           0.029555            0.80424
     44       0.00000           0.046370            1.26179
     45       0.00000           0.080176            2.18169
     46       0.00000           0.147549            4.01502
     47       0.00000           0.147549            4.01502
     48       0.00000           0.222724            6.06062
     49       0.00000           0.222725            6.06064

  What follows are estimated values for band gap, HOMO, LUMO, etc.
  | They are estimated on a discrete k-point grid and not necessarily exact.
  | For converged numbers, create a DOS and/or band structure plot on a denser k-grid.

  Highest occupied state (VBM) at     -5.77732166 eV (relative to internal zero)
  | Occupation number:      2.00000000
  | K-point:      38 at    0.333333    0.333333    0.000000 (in units of recip. lattice)

  Lowest unoccupied state (CBM) at    -4.01232404 eV (relative to internal zero)
  | Occupation number:      0.00000000
  | K-point:      43 at    0.333333    0.833333    0.000000 (in units of recip. lattice)

  ESTIMATED overall HOMO-LUMO gap:      1.76499761 eV between HOMO at k-point 38 and LUMO at k-point 43
  | This appears to be an indirect band gap.
  | Smallest direct gap :      1.88452076 eV for k_point 38 at    0.333333    0.833333    0.000000 (in units of recip. lattice)
  The gap value is above 0.2 eV. Unless you are using a very sparse k-point grid,
  this system is most likely an insulator or a semiconductor.
  Calculating total energy contributions from superposition of free atom densities.

  Total energy components:
  | Sum of eigenvalues            :       -2928.27554409 Ha      -79682.43175224 eV
  | XC energy correction          :        -175.66264083 Ha       -4780.02366180 eV
  | XC potential correction       :         228.39993962 Ha        6215.07857679 eV
  | Free-atom electrostatic energy:       -2012.05053503 Ha      -54750.68074220 eV
  | Hartree energy correction     :           0.00000000 Ha           0.00000000 eV
  | Entropy correction            :          -0.00000000 Ha          -0.00000000 eV
  | ---------------------------
  | Total energy                  :       -4887.58878033 Ha     -132998.05757945 eV
  | Total energy, T -> 0          :       -4887.58878033 Ha     -132998.05757945 eV  <-- do not rely on this value for anything but (periodic) metals
  | Electronic free energy        :       -4887.58878033 Ha     -132998.05757945 eV

  Derived energy quantities:
  | Kinetic energy                :        5018.32923537 Ha      136555.68637122 eV
  | Electrostatic energy          :       -9730.25537487 Ha     -264773.72028887 eV
  | Energy correction for multipole
  | error in Hartree potential    :           0.00000000 Ha           0.00000000 eV
  | Sum of eigenvalues per atom                           :      -26560.81058408 eV
  | Total energy (T->0) per atom                          :      -44332.68585982 eV  <-- do not rely on this value for anything but (periodic) metals
  | Electronic free energy per atom                       :      -44332.68585982 eV
  Initialize hartree_potential_storage
  Max. number of atoms included in rho_multipole:            3

  End scf initialization - timings             :  max(cpu_time)    wall_clock(cpu1)
  | Time for scf. initialization               :        1.480 s           1.478 s
  | Boundary condition initialization          :        0.604 s           0.600 s
  | Integration                                :        0.732 s           0.728 s
  | Solution of K.-S. eqns.                    :        0.024 s           0.021 s
  | Grid partitioning                          :        0.064 s           0.060 s
  | Preloading free-atom quantities on grid    :        0.012 s           0.011 s
  | Free-atom superposition energy             :        0.004 s           0.004 s
  | Total energy evaluation                    :        0.004 s           0.000 s

  Partial memory accounting:
  | Current value for overall tracked memory usage on task 0  :           9.304 MB
  | Peak value for overall tracked memory usage on task 0     :          39.814 MB after allocating wave
  | Largest tracked array allocation on task 0 so far         :          21.596 MB  when allocating hamiltonian_shell
  Note:  These values currently only include a subset of arrays which are explicitly tracked.
  The "true" memory usage will be greater.
------------------------------------------------------------

------------------------------------------------------------
          Begin self-consistency iteration #    1

  Date     :  20191111, Time     :  143359.484
------------------------------------------------------------
  Evaluating new KS density using the density matrix
  Evaluating density matrix
  Time summed over all CPUs for getting density from density matrix: real work       60.358 s, elapsed       67.365 s
  Integration grid: deviation in total charge (<rho> - N_e) =   9.663381E-13
  Pulay mixing of updated and previous charge densities.

  Evaluating partitioned Hartree potential by multipole expansion.
  | Analytical far-field extrapolation by fixed multipoles:
  | Hartree multipole sum: apparent total charge =   0.982391E-04
  Summing up the Hartree potential.
  | Estimated reciprocal-space cutoff momentum G_max:         1.90186217 bohr^-1 .
  | Reciprocal lattice points for long-range Hartree potential:     648
  Time summed over all CPUs for potential: real work        4.288 s, elapsed        4.846 s
  | RMS charge density error from multipole expansion :   0.250725E-03
  | Average real-space part of the electrostatic potential :     -0.00016492 eV

  Integrating Hamiltonian matrix: batch-based integration.
  Time summed over all CPUs for integration: real work       27.916 s, elapsed       31.146 s

  Updating Kohn-Sham eigenvalues and eigenvectors using ELSI and the ELPA eigensolver.

  Obtaining occupation numbers and chemical potential using ELSI.
  | Chemical potential (Fermi level):    -4.14488157eV
  Writing Kohn-Sham eigenvalues.
  K-point:       1 at    0.000000    0.000000    0.000000 (in units of recip. lattice)

  State    Occupation    Eigenvalue [Ha]    Eigenvalue [eV]
      1       2.00000        -745.381137       -20282.85272
      2       2.00000        -103.325068        -2811.61814
      3       2.00000         -92.345559        -2512.85052
      4       2.00000         -92.345559        -2512.85052
      5       2.00000         -92.345551        -2512.85030
      6       2.00000         -88.705416        -2413.79717
      7       2.00000         -88.705416        -2413.79717
      8       2.00000         -17.552274         -477.62169
      9       2.00000         -13.971693         -380.18912
     10       2.00000         -13.971693         -380.18912
     11       2.00000         -13.971585         -380.18617
     12       2.00000          -8.154884         -221.90568
     13       2.00000          -8.154884         -221.90568
     14       2.00000          -8.154849         -221.90473
     15       2.00000          -8.154849         -221.90473
     16       2.00000          -8.154745         -221.90190
     17       2.00000          -7.810857         -212.54424
     18       2.00000          -7.810857         -212.54424
     19       2.00000          -5.780860         -157.30520
     20       2.00000          -5.780860         -157.30519
     21       2.00000          -5.780533         -157.29629
     22       2.00000          -5.780533         -157.29629
     23       2.00000          -5.780532         -157.29629
     24       2.00000          -5.780532         -157.29629
     25       2.00000          -2.405157          -65.44764
     26       2.00000          -1.463931          -39.83558
     27       2.00000          -1.454112          -39.56840
     28       2.00000          -1.454112          -39.56840
     29       2.00000          -0.776043          -21.11720
     30       2.00000          -0.726407          -19.76655
     31       2.00000          -0.450934          -12.27054
     32       2.00000          -0.329317           -8.96116
     33       2.00000          -0.329316           -8.96115
     34       2.00000          -0.319073           -8.68241
     35       2.00000          -0.291562           -7.93382
     36       2.00000          -0.291562           -7.93380
     37       2.00000          -0.218530           -5.94651
     38       0.00000          -0.128628           -3.50015
     39       0.00000          -0.128627           -3.50013
     40       0.00000          -0.123279           -3.35460
     41       0.00000          -0.123279           -3.35459
     42       0.00000          -0.024550           -0.66804
     43       0.00000           0.029322            0.79788
     44       0.00000           0.046931            1.27707
     45       0.00000           0.081268            2.21142
     46       0.00000           0.148238            4.03377
     47       0.00000           0.148239            4.03378
     48       0.00000           0.223385            6.07861
     49       0.00000           0.223386            6.07864

  What follows are estimated values for band gap, HOMO, LUMO, etc.
  | They are estimated on a discrete k-point grid and not necessarily exact.
  | For converged numbers, create a DOS and/or band structure plot on a denser k-grid.

  Highest occupied state (VBM) at     -5.89523905 eV (relative to internal zero)
  | Occupation number:      2.00000000
  | K-point:      38 at    0.333333    0.333333    0.000000 (in units of recip. lattice)

  Lowest unoccupied state (CBM) at    -4.09750396 eV (relative to internal zero)
  | Occupation number:      0.00000000
  | K-point:      43 at    0.333333    0.833333    0.000000 (in units of recip. lattice)

  ESTIMATED overall HOMO-LUMO gap:      1.79773508 eV between HOMO at k-point 38 and LUMO at k-point 43
  | This appears to be an indirect band gap.
  | Smallest direct gap :      1.85387899 eV for k_point 38 at    0.333333    0.833333    0.000000 (in units of recip. lattice)
  The gap value is above 0.2 eV. Unless you are using a very sparse k-point grid,
  this system is most likely an insulator or a semiconductor.

  Total energy components:
  | Sum of eigenvalues            :       -2928.71330142 Ha      -79694.34373513 eV
  | XC energy correction          :        -175.65161275 Ha       -4779.72357254 eV
  | XC potential correction       :         228.38539713 Ha        6214.68285553 eV
  | Free-atom electrostatic energy:       -2012.05053503 Ha      -54750.68074220 eV
  | Hartree energy correction     :           0.45347859 Ha          12.33978018 eV
  | Entropy correction            :          -0.00000000 Ha          -0.00000000 eV
  | ---------------------------
  | Total energy                  :       -4887.57657348 Ha     -132997.72541416 eV
  | Total energy, T -> 0          :       -4887.57657348 Ha     -132997.72541416 eV  <-- do not rely on this value for anything but (periodic) metals
  | Electronic free energy        :       -4887.57657348 Ha     -132997.72541416 eV

  Derived energy quantities:
  | Kinetic energy                :        5018.21520605 Ha      136552.58347549 eV
  | Electrostatic energy          :       -9730.14016678 Ha     -264770.58531711 eV
  | Energy correction for multipole
  | error in Hartree potential    :          -0.00004323 Ha          -0.00117633 eV
  | Sum of eigenvalues per atom                           :      -26564.78124504 eV
  | Total energy (T->0) per atom                          :      -44332.57513805 eV  <-- do not rely on this value for anything but (periodic) metals
  | Electronic free energy per atom                       :      -44332.57513805 eV

  Self-consistency convergence accuracy:
  | Change of charge density      :  0.2818E+00
  | Change of sum of eigenvalues  : -0.1191E+02 eV
  | Change of total energy        :  0.3322E+00 eV

  End self-consistency iteration #     1       :  max(cpu_time)    wall_clock(cpu1)
  | Time for this iteration                    :        1.368 s           1.361 s
  | Charge density update                      :        0.860 s           0.856 s
  | Density mixing & preconditioning           :        0.016 s           0.016 s
  | Hartree multipole update                   :        0.004 s           0.001 s
  | Hartree multipole summation                :        0.076 s           0.073 s
  | Integration                                :        0.404 s           0.399 s
  | Solution of K.-S. eqns.                    :        0.020 s           0.016 s
  | Total energy evaluation                    :        0.004 s           0.000 s

  Partial memory accounting:
  | Current value for overall tracked memory usage on task 0  :           9.304 MB
  | Peak value for overall tracked memory usage on task 0     :          45.726 MB after allocating gradient_basis_wave
  | Largest tracked array allocation on task 0 so far         :          21.596 MB  when allocating hamiltonian_shell
  Note:  These values currently only include a subset of arrays which are explicitly tracked.
  The "true" memory usage will be greater.
------------------------------------------------------------

------------------------------------------------------------
          Begin self-consistency iteration #    2

  Date     :  20191111, Time     :  143400.847
------------------------------------------------------------
  Evaluating new KS density using the density matrix
  Evaluating density matrix
  Time summed over all CPUs for getting density from density matrix: real work       59.768 s, elapsed       67.136 s
  Integration grid: deviation in total charge (<rho> - N_e) =   8.526513E-13
  Pulay mixing of updated and previous charge densities.

  Evaluating partitioned Hartree potential by multipole expansion.
  | Analytical far-field extrapolation by fixed multipoles:
  | Hartree multipole sum: apparent total charge =   0.138205E-02
  Summing up the Hartree potential.
  Time summed over all CPUs for potential: real work        4.820 s, elapsed        5.457 s
  | RMS charge density error from multipole expansion :   0.217345E-02
  | Average real-space part of the electrostatic potential :     -0.00145456 eV

  Integrating Hamiltonian matrix: batch-based integration.
  Time summed over all CPUs for integration: real work       27.916 s, elapsed       31.143 s

  Updating Kohn-Sham eigenvalues and eigenvectors using ELSI and the ELPA eigensolver.

  Obtaining occupation numbers and chemical potential using ELSI.
  | Chemical potential (Fermi level):    -5.17293402eV
  What follows are estimated values for band gap, HOMO, LUMO, etc.
  | They are estimated on a discrete k-point grid and not necessarily exact.
  | For converged numbers, create a DOS and/or band structure plot on a denser k-grid.

  Highest occupied state (VBM) at     -6.65206895 eV (relative to internal zero)
  | Occupation number:      2.00000000
  | K-point:       1 at    0.000000    0.000000    0.000000 (in units of recip. lattice)

  Lowest unoccupied state (CBM) at    -5.12678826 eV (relative to internal zero)
  | Occupation number:      0.00000000
  | K-point:      38 at    0.333333    0.333333    0.000000 (in units of recip. lattice)

  ESTIMATED overall HOMO-LUMO gap:      1.52528069 eV between HOMO at k-point 1 and LUMO at k-point 38
  | This appears to be an indirect band gap.
  | Smallest direct gap :      1.62915609 eV for k_point 38 at    0.333333    0.333333    0.000000 (in units of recip. lattice)
  The gap value is above 0.2 eV. Unless you are using a very sparse k-point grid,
  this system is most likely an insulator or a semiconductor.

  Checking to see if s.c.f. parameters should be adjusted.
  The system likely has a gap. Increased the default Pulay mixing parameter (charge_mix_param). Value:   0.200000 .
  Kept the default occupation width. Value:   0.010000 eV.

  Total energy components:
  | Sum of eigenvalues            :       -2931.91389050 Ha      -79781.43619516 eV
  | XC energy correction          :        -175.57552730 Ha       -4777.65318210 eV
  | XC potential correction       :         228.28469143 Ha        6211.94251394 eV
  | Free-atom electrostatic energy:       -2012.05053503 Ha      -54750.68074220 eV
  | Hartree energy correction     :           3.71935615 Ha         101.20883030 eV
  | Entropy correction            :          -0.00000000 Ha          -0.00000000 eV
  | ---------------------------
  | Total energy                  :       -4887.53590525 Ha     -132996.61877523 eV
  | Total energy, T -> 0          :       -4887.53590525 Ha     -132996.61877523 eV  <-- do not rely on this value for anything but (periodic) metals
  | Electronic free energy        :       -4887.53590525 Ha     -132996.61877523 eV

  Derived energy quantities:
  | Kinetic energy                :        5017.32279326 Ha      136528.29968800 eV
  | Electrostatic energy          :       -9729.28317121 Ha     -264747.26528112 eV
  | Energy correction for multipole
  | error in Hartree potential    :          -0.00038942 Ha          -0.01059660 eV
  | Sum of eigenvalues per atom                           :      -26593.81206505 eV
  | Total energy (T->0) per atom                          :      -44332.20625841 eV  <-- do not rely on this value for anything but (periodic) metals
  | Electronic free energy per atom                       :      -44332.20625841 eV

  Self-consistency convergence accuracy:
  | Change of charge density      :  0.2515E+00
  | Change of sum of eigenvalues  : -0.8709E+02 eV
  | Change of total energy        :  0.1107E+01 eV

  End self-consistency iteration #     2       :  max(cpu_time)    wall_clock(cpu1)
  | Time for this iteration                    :        1.368 s           1.364 s
  | Charge density update                      :        0.856 s           0.852 s
  | Density mixing & preconditioning           :        0.016 s           0.015 s
  | Hartree multipole update                   :        0.004 s           0.002 s
  | Hartree multipole summation                :        0.084 s           0.080 s
  | Integration                                :        0.400 s           0.398 s
  | Solution of K.-S. eqns.                    :        0.020 s           0.017 s
  | Total energy evaluation                    :        0.004 s           0.000 s

  Partial memory accounting:
  | Current value for overall tracked memory usage on task 0  :           9.304 MB
  | Peak value for overall tracked memory usage on task 0     :          45.726 MB after allocating gradient_basis_wave
  | Largest tracked array allocation on task 0 so far         :          21.596 MB  when allocating hamiltonian_shell
  Note:  These values currently only include a subset of arrays which are explicitly tracked.
  The "true" memory usage will be greater.
------------------------------------------------------------

------------------------------------------------------------
          Begin self-consistency iteration #    3

  Date     :  20191111, Time     :  143402.211
------------------------------------------------------------
  Evaluating new KS density using the density matrix
  Evaluating density matrix
  Time summed over all CPUs for getting density from density matrix: real work       59.757 s, elapsed       67.114 s
  Integration grid: deviation in total charge (<rho> - N_e) =   9.379164E-13
  Pulay mixing of updated and previous charge densities.

  Evaluating partitioned Hartree potential by multipole expansion.
  | Analytical far-field extrapolation by fixed multipoles:
  | Hartree multipole sum: apparent total charge =   0.128506E-02
  Summing up the Hartree potential.
  Time summed over all CPUs for potential: real work        4.810 s, elapsed        5.439 s
  | RMS charge density error from multipole expansion :   0.205774E-02
  | Average real-space part of the electrostatic potential :      0.00165791 eV

  Integrating Hamiltonian matrix: batch-based integration.
  Time summed over all CPUs for integration: real work       27.903 s, elapsed       31.122 s

  Updating Kohn-Sham eigenvalues and eigenvectors using ELSI and the ELPA eigensolver.

  Obtaining occupation numbers and chemical potential using ELSI.
  | Chemical potential (Fermi level):    -3.58555258eV
  What follows are estimated values for band gap, HOMO, LUMO, etc.
  | They are estimated on a discrete k-point grid and not necessarily exact.
  | For converged numbers, create a DOS and/or band structure plot on a denser k-grid.

  Highest occupied state (VBM) at     -5.19037576 eV (relative to internal zero)
  | Occupation number:      2.00000000
  | K-point:      38 at    0.333333    0.333333    0.000000 (in units of recip. lattice)

  Lowest unoccupied state (CBM) at    -3.53833466 eV (relative to internal zero)
  | Occupation number:      0.00000000
  | K-point:      43 at    0.333333    0.833333    0.000000 (in units of recip. lattice)

[...]
     66       1.00000                      -8.569928          -8.539732             0.000000
     67       1.00000                      -7.736591          -7.733094             0.806638
     68       1.00000                      -7.736591          -7.733094             0.000000
     69       1.00000                      -7.469666          -7.512349             0.220745
     70       1.00000                      -7.469666          -7.512349             0.000000
     71       1.00000                      -7.469651          -7.428791             0.083558
     72       1.00000                      -7.469651          -7.428791             0.000000
     73       1.00000                      -5.972214          -5.968384             1.460407
     74       1.00000                      -5.972214          -5.968384             0.000000
     75       0.00000                      -3.215000          -3.257127             2.711257
     76       0.00000                      -3.215000          -3.257127             0.000000
     77       0.00000                      -3.214984          -3.178791             0.078336
     78       0.00000                      -3.214984          -3.178791             0.000000
     79       0.00000                      -2.965313          -2.959764             0.219027
     80       0.00000                      -2.965313          -2.959764             0.000000
     81       0.00000                      -2.965299          -2.958643             0.001121
     82       0.00000                      -2.965299          -2.958643             0.000000
     83       0.00000                       0.085410           0.085541             3.044184
     84       0.00000                       0.085410           0.085541             0.000000
     85       0.00000                       1.142619           1.142786             1.057244
     86       0.00000                       1.142619           1.142786             0.000000
     87       0.00000                       1.677149           1.677387             0.534601
     88       0.00000                       1.677149           1.677387             0.000000
     89       0.00000                       3.057946           3.059502             1.382115
     90       0.00000                       3.057946           3.059502             0.000000
     91       0.00000                       4.777958           4.745173             1.685670
     92       0.00000                       4.777958           4.745173             0.000000
     93       0.00000                       4.778023           4.821067             0.075894
     94       0.00000                       4.778023           4.821067             0.000000
     95       0.00000                       6.598624           6.597116             1.776049
     96       0.00000                       6.598624           6.597116             0.000000
     97       0.00000                       6.793806           6.796343             0.199227
     98       0.00000                       6.793806           6.796343             0.000000

  What follows are estimated values for band gap, HOMO, LUMO, etc.
  | They are estimated on a discrete k-point grid and not necessarily exact.
  | For converged numbers, create a DOS and/or band structure plot on a denser k-grid.

  Highest occupied state (VBM) at     -5.91145880 eV (relative to internal zero)
  | Occupation number:      1.00000000
  | K-point:      38 at    0.333333    0.333333    0.000000 (in units of recip. lattice)

  Lowest unoccupied state (CBM) at    -4.31327266 eV (relative to internal zero)
  | Occupation number:      0.00000000
  | K-point:      38 at    0.333333    0.333333    0.000000 (in units of recip. lattice)

  ESTIMATED overall HOMO-LUMO gap:      1.59818614 eV between HOMO at k-point 38 and LUMO at k-point 38
  | This appears to be a direct band gap.
  The gap value is above 0.2 eV. Unless you are using a very sparse k-point grid,
  this system is most likely an insulator or a semiconductor.

  Spin-orbit coupling                                     :  max(cpu_time)    wall_clock(cpu1)
  | Computing matrix elements for SOC operator            :          3.000               3.000
  | Constructing second-variational Hamiltonian           :          0.000               0.000
  | Diagonalizing second-variational Hamiltonian          :          0.000               0.000
  | Constructing SOC-perturbed eigenvectors               :          0.000               0.000
  | Syncing data and calculating occupations              :          0.020               0.018
  | Writing out data, calculating band gaps, etc.         :          0.004               0.001
  | Total SOC time                                        :          3.024               3.019

  Partial memory accounting:
  | Current value for overall tracked memory usage on task 0  :           9.421 MB
  | Peak value for overall tracked memory usage on task 0     :          51.293 MB after allocating +potential_shell
  | Largest tracked array allocation on task 0 so far         :          21.596 MB  when allocating hamiltonian_shell
  Note:  These values currently only include a subset of arrays which are explicitly tracked.
  The "true" memory usage will be greater.
 ------------------------------------------------------------

  ------------------------------------------------------------
                   Starting Mulliken Analysis
  ------------------------------------------------------------

  Performing scalar-relativistic Mulliken charge analysis on all atoms.
  Full analysis (per state, per k-point, etc.) will NOT be written to separate file 'Mulliken.out.no_soc'.
  This file can be requested by stating 'output mulliken' explicitly.
  Summary of the per-atom charge analysis:
  |
  |  atom       electrons          charge             l=0             l=1             l=2             l=3             l=4             l=5
  |     1       41.394551        0.605449        8.282433       18.488276       14.382519        0.225364        0.013872        0.002087
  |     2       16.302724       -0.302724        5.858467       10.120278        0.255220        0.058603        0.010157
  |     3       16.302724       -0.302724        5.858467       10.120278        0.255220        0.058603        0.010157
  |
  | Total       74.000000       -0.000000
 

  Calculating atom-projected density of states ...
  | Chemical potential is  -4.354991 eV.
  | writing projected DOS (shifted by the chemical potential) for species Mo to file atom_projected_dos_Mo0001.dat.no_soc.
  | writing projected DOS (raw data) for species Mo to file atom_proj_dos_Mo0001_raw.dat.no_soc.
  | writing projected DOS (shifted by the chemical potential) for species S to file atom_projected_dos_S0002.dat.no_soc.
  | writing projected DOS (raw data) for species S to file atom_proj_dos_S0002_raw.dat.no_soc.
  | writing projected DOS (shifted by the chemical potential) for species S to file atom_projected_dos_S0003.dat.no_soc.
  | writing projected DOS (raw data) for species S to file atom_proj_dos_S0003_raw.dat.no_soc.

  Performing spin-orbit-coupled Mulliken charge analysis on all atoms.
*** output_mulliken expected pure occ_numbers
*** sum(occ_numbers) =  2.7380000000000000E+03 instead of  7.4000000000000000E+01
  Full analysis (per state, per k-point, etc.) will NOT be written to separate file 'Mulliken.out.no_soc'.
  This file can be requested by stating 'output mulliken' explicitly.
  Summary of the per-atom charge analysis:
  |
  |  atom       electrons          charge             l=0             l=1             l=2             l=3             l=4             l=5
  |     1       41.394395        0.605605        8.282462       18.487809       14.382749        0.225415        0.013873        0.002087
  |     2       16.302803       -0.302803        5.858484       10.120200        0.255355        0.058605        0.010158
  |     3       16.302803       -0.302803        5.858484       10.120200        0.255355        0.058605        0.010158
  |
  | Total       74.000000       -0.000000
 

  Calculating atom-projected density of states ...
  | Chemical potential is  -4.356292 eV.
  | writing projected DOS (shifted by the chemical potential) for species Mo to file atom_projected_dos_Mo0001.dat.
  | writing projected DOS (raw data) for species Mo to file atom_proj_dos_Mo0001_raw.dat.
  | writing projected DOS (shifted by the chemical potential) for species S to file atom_projected_dos_S0002.dat.
  | writing projected DOS (raw data) for species S to file atom_proj_dos_S0002_raw.dat.
  | writing projected DOS (shifted by the chemical potential) for species S to file atom_projected_dos_S0003.dat.
  | writing projected DOS (raw data) for species S to file atom_proj_dos_S0003_raw.dat.
  Mulliken analysis                                       :  max(cpu_time)    wall_clock(cpu1)
  | Time for Mulliken analysis (scalar relativistic)      :          0.104               0.122
  | Time for Mulliken analysis (spin-orbit coupled)       :          0.376               0.391
  | Total time for Mulliken analysis                      :          0.480               0.513
------------------------------------------------------------

  -------------------------------------------------------------------
  Writing the requested band structure output (LAPACK version):
  -------------------------------------------------------------------

  Integrating Hamiltonian matrix: batch-based integration.
  Time summed over all CPUs for integration: real work       27.907 s, elapsed       31.141 s
  Integrating SOC matrix: batch-based integration p2 version.
  Allocating        0.110 MB for dist_tab
  Allocating        0.110 MB for dist_tab_sq
  Allocating        0.329 MB for dir_tab
  Allocating        0.010 MB for i_basis_fns
  Allocating        0.364 MB for i_basis_fns_inv
  Allocating        0.010 MB for i_atom_fns
  Allocating        7.413 MB for gradient_basis_wave
  Allocating        0.011 MB for ylm_tab
  Allocating        0.003 MB for radial_wave
  Allocating        0.003 MB for radial_wave_deriv
  Allocating        0.013 MB for i_basis
  Allocating       21.596 MB for soc_shell
  Allocating        0.037 MB for cartesians
  Allocating        0.032 MB for sum_gradient
  Allocating        0.064 MB for sum_hessian
  Allocating        0.002 MB for potential_shell

  Treating all   31 k-points in band plot segment #   1:


  Scalar-relativistic "band gap" along reciprocal space direction number:    1
  | Lowest unoccupied state:      -3.79953651 eV
  | Highest occupied state :      -5.97221409 eV
  | Energy difference      :       2.17267758 eV


Spin-orbit-coupled "band gap" along reciprocal space direction number:    1
  | Lowest unoccupied state:      -3.80509012 eV
  | Highest occupied state :      -5.96838427 eV
  | Energy difference      :       2.16329415 eV


  Treating all   31 k-points in band plot segment #   2:


  Scalar-relativistic "band gap" along reciprocal space direction number:    2
  | Lowest unoccupied state:      -4.30875353 eV
  | Highest occupied state :      -5.98560061 eV
  | Energy difference      :       1.67684707 eV


Spin-orbit-coupled "band gap" along reciprocal space direction number:    2
  | Lowest unoccupied state:      -4.31327266 eV
  | Highest occupied state :      -5.91145880 eV
  | Energy difference      :       1.59818614 eV


  Treating all   31 k-points in band plot segment #   3:


  Scalar-relativistic "band gap" along reciprocal space direction number:    3
  | Lowest unoccupied state:      -4.30875353 eV
  | Highest occupied state :      -5.97221409 eV
  | Energy difference      :       1.66346056 eV


Spin-orbit-coupled "band gap" along reciprocal space direction number:    3
  | Lowest unoccupied state:      -4.31327266 eV
  | Highest occupied state :      -5.91145880 eV
  | Energy difference      :       1.59818614 eV

  Scalar-relativistic "band gap" of total set of bands:
  | Lowest unoccupied state:      -4.30875353 eV
  | Highest occupied state :      -5.97221409 eV
  | Energy difference      :       1.66346056 eV

  Spin-orbit-coupled "band gap" of total set of bands:
  | Lowest unoccupied state:      -4.31327266 eV
  | Highest occupied state :      -5.91145880 eV
  | Energy difference      :       1.59818614 eV


  Band Structure                                          :  max(cpu_time) wall_clock(cpu1)
  | Total Time                                            :          3.528            3.548
------------------------------------------------------------

------------------------------------------------------------------------------
  Final output of selected total energy values:

  The following output summarizes some interesting total energy values
  at the end of a run (AFTER all relaxation, molecular dynamics, etc.).

  | Total energy of the DFT / Hartree-Fock s.c.f. calculation      :        -132996.554367273 eV
  | Final zero-broadening corrected energy (caution - metals only) :        -132996.554367273 eV
  | Total energy after non-SC SOC correction (DO NOT USE)          :        -132996.603392734 eV
  | For reference only, the value of 1 Hartree used in FHI-aims is :             27.211384500 eV

  Before relying on these values, please be sure to understand exactly which
  total energy value is referred to by a given number. Different objects may
  all carry the same name 'total energy'. Definitions:

  Total energy of the DFT / Hartree-Fock s.c.f. calculation:
  | Note that this energy does not include ANY quantities calculated after the
  | s.c.f. cycle, in particular not ANY RPA, MP2, etc. many-body perturbation terms.

  Final zero-broadening corrected energy:
  | For metallic systems only, a broadening of the occupation numbers at the Fermi
  | level can be extrapolated back to zero broadening by an electron-gas inspired
  | formula. For all systems that are not real metals, this value can be
  | meaningless and should be avoided.

------------------------------------------------------------------------------
  Methods described in the following list of references were used in this FHI-aims run.
  If you publish the results, please make sure to cite these reference if they apply.
  FHI-aims is an academic code, and for our developers (often, Ph.D. students
  and postdocs), scientific credit in the community is essential.
  Thank you for helping us!

  For any use of FHI-aims, please cite:

    Volker Blum, Ralf Gehrke, Felix Hanke, Paula Havu, Ville Havu,
    Xinguo Ren, Karsten Reuter, and Matthias Scheffler
    'Ab initio molecular simulations with numeric atom-centered orbitals'
    Computer Physics Communications 180, 2175-2196 (2009)
    http://dx.doi.org/10.1016/j.cpc.2009.06.022


  For second-variational spin-orbit coupling used in your run, please cite:

    William P. Huhn and Volker Blum,
    'One-hundred-three compound band-structure benchmark of post-self-consistent'
    'spin-orbit coupling treatments in density functional theory'
    Phys. Rev. Materials 1, 033803 (2017).


  The scalable eigensolver library ELPA was used in your run.
  ELPA is essential especially for large systems on hundreds or thousands of CPUs.
  For ELPA, please cite:

    Andreas Marek, Volker Blum, Rainer Johanni, Ville Havu, Bruno Lang,
    Thomas Auckenthaler, Alexander Heinecke, Hans-Joachim Bungartz, and Hermann Lederer,
    'The ELPA Library - Scalable Parallel Eigenvalue Solutions
    for Electronic Structure Theory and Computational Science'
    The Journal of Physics: Condensed Matter 26, 213201 (2014).
    http://dx.doi.org/10.1088/0953-8984/26/21/213201


  The ELSI infrastructure was used in your run to solve the Kohn-Sham electronic structure.
  Please check out http://elsi-interchange.org to learn more.
  If scalability is important for your project, please acknowledge ELSI by citing:

    V. W-z. Yu, F. Corsetti, A. Garcia, W. P. Huhn, M. Jacquelin, W. Jia,
    B. Lange, L. Lin, J. Lu, W. Mi, A. Seifitokaldani, A. Vazquez-Mayagoitia,
    C. Yang, H. Yang, and V. Blum
    'ELSI: A unified software interface for Kohn-Sham electronic structure solvers'
    Computer Physics Communications 222, 267-285 (2018).
    http://dx.doi.org/10.1016/j.cpc.2017.09.007


  For the real-space grid partitioning and parallelization used in this calculation, please cite:

    Ville Havu, Volker Blum, Paula Havu, and Matthias Scheffler,
    'Efficient O(N) integration for all-electron electronic structure calculation'
    'using numerically tabulated basis functions'
    Journal of Computational Physics 228, 8367-8379 (2009).
    http://dx.doi.org/10.1016/j.jcp.2009.08.008

  Of course, there are many other important community references, e.g., those cited in the
  above references. Our list is limited to references that describe implementations in the
  FHI-aims code. The reason is purely practical (length of this list) - please credit others as well.

 * A warning was issued further up regarding the CPU load.
   Some CPUs do not participate in the eigenvalue solution.
   In corner cases, this may be the correct behavior. Otherwise,
   consider using a scalapack/elpa version of the code for a parallel treatment.

------------------------------------------------------------
          Leaving FHI-aims.
          Date     :  20191111, Time     :  143428.461

          Computational steps:
          | Number of self-consistency cycles          :           16
          | Number of SCF (re)initializations          :            1

          Detailed time accounting                     :  max(cpu_time)    wall_clock(cpu1)
          | Total time                                 :       31.008 s          30.986 s
          | Preparation time                           :        0.436 s           0.433 s
          | Boundary condition initalization           :        0.604 s           0.600 s
          | Grid partitioning                          :        0.064 s           0.060 s
          | Preloading free-atom quantities on grid    :        0.012 s           0.011 s
          | Free-atom superposition energy             :        0.004 s           0.004 s
          | Total time for integrations                :        7.140 s           7.103 s
          | Total time for solution of K.-S. equations :        0.296 s           0.279 s
          | Total time for density update              :       13.700 s          13.636 s
          | Total time for mixing & preconditioning    :        0.268 s           0.262 s
          | Total time for Hartree multipole update    :        0.064 s           0.028 s
          | Total time for Hartree multipole sum       :        1.380 s           1.322 s
          | Total time for total energy evaluation     :        0.064 s           0.001 s
          | Total time for scaled ZORA corrections     :        0.000 s           0.000 s
          | Total time for perturbative SOC            :        3.024 s           3.019 s
          | Total time for band structures, DOS        :        3.548 s           3.548 s
          | Total time for Mulliken analysis           :        0.492 s           0.513 s

          Partial memory accounting:
          | Residual value for overall tracked memory usage across tasks :           0.000 MB (should be 0.000 MB)
          | Peak values for overall tracked memory usage (after allocating +potential_shell):
          |   Minimum:       49.645 MB (on task 10)
          |   Maximum:       55.789 MB (on task 72)
          |   Average:       53.182 MB
          | Largest tracked array allocation (hamiltonian_shell):
          |   Minimum:       19.594 MB (on task 10)
          |   Maximum:       24.837 MB (on task 72)
          |   Average:       22.648 MB
          Note:  These values currently only include a subset of arrays which are explicitly tracked.
          The "true" memory usage will be greater.

          Have a nice day.
------------------------------------------------------------
