------------------------------------------------------------
          Invoking FHI-aims ...

          When using FHI-aims, please cite the following reference:

          Volker Blum, Ralf Gehrke, Felix Hanke, Paula Havu,
          Ville Havu, Xinguo Ren, Karsten Reuter, and Matthias Scheffler,
          'Ab Initio Molecular Simulations with Numeric Atom-Centered Orbitals',
          Computer Physics Communications 180, 2175-2196 (2009)

          For any questions about FHI-aims, please visit the aimsclub website
          with its forums and wiki. Contributions to both the forums and the
          wiki are warmly encouraged - they are for you, and everyone is welcome there.

------------------------------------------------------------



  Date     :  20200320, Time     :  114741.970
  Time zero on CPU 1             :   0.112078000000000E+00  s.
  Internal wall clock time zero  :           353936861.970  s.

  FHI-aims created a unique identifier for this run for later identification
  aims_uuid : 9844E3B1-264B-4935-A8E0-921BBBD1942F

  Build configuration of the current instance of FHI-aims
  -------------------------------------------------------
  FHI-aims version      : 200112
  Commit number         : 23daeca3f
  CMake host system     : Linux-3.10.0-693.21.1.el7.x86_64
  CMake version         : 3.13.3
  Fortran compiler      : /sw/installed/impi/2018.4.274-iccifort-2019.1.144-GCC-8.2.0-2.31.1/bin64/mpiifort (Intel) version 19.0.0.20181018
  Fortran compiler flags: -O3 -ip -fp-model precise
  C compiler            : /sw/installed/impi/2018.4.274-iccifort-2019.1.144-GCC-8.2.0-2.31.1/bin64/mpiicc (Intel) version 19.0.0.20181018
  C compiler flags      : -O3 -ip -fp-model precise
  Architecture          :
  Using MPI
  Using Scalapack
  Using C files
  Using LibXC
  Using SPGlib
  Using i-PI
  Using RLSY
  Linking against: /sw/installed/imkl/2019.1.144-iimpi-2019a/mkl/lib/intel64/libmkl_intel_lp64.so
                   /sw/installed/imkl/2019.1.144-iimpi-2019a/mkl/lib/intel64/libmkl_sequential.so
                   /sw/installed/imkl/2019.1.144-iimpi-2019a/mkl/lib/intel64/libmkl_core.so
                   /sw/installed/imkl/2019.1.144-iimpi-2019a/mkl/lib/intel64/libmkl_blacs_intelmpi_lp64.so
                   /sw/installed/imkl/2019.1.144-iimpi-2019a/mkl/lib/intel64/libmkl_scalapack_lp64.so

  Using       24 parallel tasks.
  Task        0 on host taurusi6080.taurus.hrsk.tu-dresden.de reporting.
  Task        1 on host taurusi6080.taurus.hrsk.tu-dresden.de reporting.
  Task        2 on host taurusi6080.taurus.hrsk.tu-dresden.de reporting.
  Task        3 on host taurusi6080.taurus.hrsk.tu-dresden.de reporting.
  Task        4 on host taurusi6080.taurus.hrsk.tu-dresden.de reporting.
  Task        5 on host taurusi6080.taurus.hrsk.tu-dresden.de reporting.
  Task        6 on host taurusi6080.taurus.hrsk.tu-dresden.de reporting.
  Task        7 on host taurusi6080.taurus.hrsk.tu-dresden.de reporting.
  Task        8 on host taurusi6080.taurus.hrsk.tu-dresden.de reporting.
  Task        9 on host taurusi6080.taurus.hrsk.tu-dresden.de reporting.
  Task       10 on host taurusi6080.taurus.hrsk.tu-dresden.de reporting.
  Task       11 on host taurusi6080.taurus.hrsk.tu-dresden.de reporting.
  Task       12 on host taurusi6080.taurus.hrsk.tu-dresden.de reporting.
  Task       13 on host taurusi6080.taurus.hrsk.tu-dresden.de reporting.
  Task       14 on host taurusi6080.taurus.hrsk.tu-dresden.de reporting.
  Task       15 on host taurusi6080.taurus.hrsk.tu-dresden.de reporting.
  Task       16 on host taurusi6080.taurus.hrsk.tu-dresden.de reporting.
  Task       17 on host taurusi6080.taurus.hrsk.tu-dresden.de reporting.
  Task       18 on host taurusi6080.taurus.hrsk.tu-dresden.de reporting.
  Task       19 on host taurusi6080.taurus.hrsk.tu-dresden.de reporting.
  Task       20 on host taurusi6080.taurus.hrsk.tu-dresden.de reporting.
  Task       21 on host taurusi6080.taurus.hrsk.tu-dresden.de reporting.
  Task       22 on host taurusi6080.taurus.hrsk.tu-dresden.de reporting.
  Task       23 on host taurusi6080.taurus.hrsk.tu-dresden.de reporting.

  Performing system and environment tests:
  | Environment variable OMP_NUM_THREADS correctly set to 1.
  | Maximum stacksize for task 0: unlimited
  | Maximum stacksize for task 1: unlimited
  | Maximum stacksize for task 2: unlimited
  | Maximum stacksize for task 3: unlimited
  | Maximum stacksize for task 4: unlimited
  | Maximum stacksize for task 5: unlimited
  | Maximum stacksize for task 6: unlimited
  | Maximum stacksize for task 7: unlimited
  | Maximum stacksize for task 8: unlimited
  | Maximum stacksize for task 9: unlimited
  | Maximum stacksize for task 10: unlimited
  | Maximum stacksize for task 11: unlimited
  | Maximum stacksize for task 12: unlimited
  | Maximum stacksize for task 13: unlimited
  | Maximum stacksize for task 14: unlimited
  | Maximum stacksize for task 15: unlimited
  | Maximum stacksize for task 16: unlimited
  | Maximum stacksize for task 17: unlimited
  | Maximum stacksize for task 18: unlimited
  | Maximum stacksize for task 19: unlimited
  | Maximum stacksize for task 20: unlimited
  | Maximum stacksize for task 21: unlimited
  | Maximum stacksize for task 22: unlimited
  | Maximum stacksize for task 23: unlimited
  | Current stacksize for task 0: unlimited
  | Current stacksize for task 1: unlimited
  | Current stacksize for task 2: unlimited
  | Current stacksize for task 3: unlimited
  | Current stacksize for task 4: unlimited
  | Current stacksize for task 5: unlimited
  | Current stacksize for task 6: unlimited
  | Current stacksize for task 7: unlimited
  | Current stacksize for task 8: unlimited
  | Current stacksize for task 9: unlimited
  | Current stacksize for task 10: unlimited
  | Current stacksize for task 11: unlimited
  | Current stacksize for task 12: unlimited
  | Current stacksize for task 13: unlimited
  | Current stacksize for task 14: unlimited
  | Current stacksize for task 15: unlimited
  | Current stacksize for task 16: unlimited
  | Current stacksize for task 17: unlimited
  | Current stacksize for task 18: unlimited
  | Current stacksize for task 19: unlimited
  | Current stacksize for task 20: unlimited
  | Current stacksize for task 21: unlimited
  | Current stacksize for task 22: unlimited
  | Current stacksize for task 23: unlimited
  | Checking for scalapack...
  | Testing pdtran()...
  | All pdtran() tests passed.

  Obtaining array dimensions for all initial allocations:
  
  -----------------------------------------------------------------------
  Parsing control.in (first pass over file, find array dimensions only).
  The contents of control.in will be repeated verbatim below
  unless switched off by setting 'verbatim_writeout .false.' .
  in the first line of control.in .
  -----------------------------------------------------------------------
  
  #===============================================================================
  # FHI-aims file: ./control.in
  # Created using the Atomic Simulation Environment (ASE)
  # Thu Mar 19 17:13:21 2020
  #===============================================================================
  xc                                 pbe
  # include_spin_orbit
  # vdw_correction_hirshfeld
  # many_body_dispersion_nl 	 beta=0.81
  spin                               none
  k_grid 	 	 5 5 5
  relativistic                       atomic_zora scalar
  ### SCF settings
  adjust_scf 	 always 	 3
  # frozen_core_scf 	 .true.
  charge_mix_param  0.02
  occupation_type 	 gaussian 	 0.02
  # sc_accuracy_eev   1E-3 	 	 # sum of eigenvalues convergence
  # sc_accuracy_etot  1E-6 	 	 # total energy convergence
  # sc_accuracy_rho   1E-3 	 	 # electron density convergence
  # elsi_restart 	 read_and_write 	 1000
  #===============================================================================
  
  ################################################################################
  #
  #  FHI-aims code project
  # Volker Blum, Fritz Haber Institute Berlin, 2009
  #
  #  Suggested "tight" defaults for Ti atom (to be pasted into control.in file)
  #
  ################################################################################
    species        Ti
  #     global species definitions
      nucleus             22
      mass                47.867
  #
      l_hartree           6
  #
      cut_pot             4.0          2.0  1.0
      basis_dep_cutoff    1e-4
  #
      radial_base         48 7.0
      radial_multiplier   2
      angular_grids       specified
        division   0.3263   50
        division   0.7218  110
        division   1.0925  194
        division   1.3188  302
        division   1.4940  434
  #      division   1.6583  590
  #      division   1.8821  770
  #      division   2.0961  974
  #      division   3.3854 1202
  #      outer_grid  974
        outer_grid  434
  ################################################################################
  #
  #  Definition of "minimal" basis
  #
  ################################################################################
  #     valence basis states
      valence      4  s   2.
      valence      3  p   6.
      valence      3  d   2.
  #     ion occupancy
      ion_occ      4  s   1.
      ion_occ      3  p   6.
      ion_occ      3  d   1.
  ################################################################################
  #
  #  Suggested additional basis functions. For production calculations,
  #  uncomment them one after another (the most important basis functions are
  #  listed first).
  #
  #  Constructed for dimers: 1.6 A, 1.85 A, 2.5 A, 3.25 A, 4.25 A
  #
  ################################################################################
  #  "First tier" - improvements: -396.25 meV to -19.41 meV
       hydro 4 f 8
       hydro 3 d 2.7
       ionic 4 p auto
       hydro 5 g 11.6
       ionic 4 s auto
  #  "Second tier" - improvements: -16.30 meV to -2.03 meV
  #     hydro 3 d 4.4
  #     hydro 6 h 16
  #     hydro 4 f 9.4
  #     hydro 4 p 4.5
  #     hydro 1 s 0.5
  #  "Third tier" - improvements: -6.28 meV to -0.37 meV
  #     hydro 4 d 6.4
  #     hydro 4 f 10
  #     hydro 5 g 12
  #     hydro 2 p 1.7
  #     hydro 6 h 16.4
  #     hydro 4 s 3.8
  #  Further basis functions: -0.45 meV and smaller improvements
  #     hydro 3 d 8.8
  #     hydro 5 p 18
  #     hydro 4 f 22.4
  #     hydro 5 f 7.2  # -0.16 meV
  #     hydro 3 d 2.1  # -0.11 meV
  #     hydro 5 g 7.4  # -0.09 meV
  ################################################################################
  #
  #  FHI-aims code project
  # Volker Blum, Fritz Haber Institute Berlin, 2009
  #
  #  Suggested "tight" defaults for O atom (to be pasted into control.in file)
  #
  ################################################################################
    species        O
  #     global species definitions
      nucleus             8
      mass                15.9994
  #
      l_hartree           6
  #
      cut_pot             4.0  2.0  1.0
      basis_dep_cutoff    1e-4
  #
      radial_base         36 7.0
      radial_multiplier   2
       angular_grids specified
        division   0.1817   50
        division   0.3417  110
        division   0.4949  194
        division   0.6251  302
        division   0.8014  434
  #      division   0.8507  590
  #      division   0.8762  770
  #      division   0.9023  974
  #      division   1.2339 1202
  #      outer_grid 974
        outer_grid  434
  ################################################################################
  #
  #  Definition of "minimal" basis
  #
  ################################################################################
  #     valence basis states
      valence      2  s   2.
      valence      2  p   4.
  #     ion occupancy
      ion_occ      2  s   1.
      ion_occ      2  p   3.
  ################################################################################
  #
  #  Suggested additional basis functions. For production calculations,
  #  uncomment them one after another (the most important basis functions are
  #  listed first).
  #
  #  Constructed for dimers: 1.0 A, 1.208 A, 1.5 A, 2.0 A, 3.0 A
  #
  ################################################################################
  #  "First tier" - improvements: -699.05 meV to -159.38 meV
       hydro 2 p 1.8
       hydro 3 d 7.6
       hydro 3 s 6.4
  #  "Second tier" - improvements: -49.91 meV to -5.39 meV
  #     hydro 4 f 11.6
  #     hydro 3 p 6.2
  #     hydro 3 d 5.6
  #     hydro 5 g 17.6
  #     hydro 1 s 0.75
  #  "Third tier" - improvements: -2.83 meV to -0.50 meV
  #     ionic 2 p auto
  #     hydro 4 f 10.8
  #     hydro 4 d 4.7
  #     hydro 2 s 6.8
  #  "Fourth tier" - improvements: -0.40 meV to -0.12 meV
  #     hydro 3 p 5
  #     hydro 3 s 3.3
  #     hydro 5 g 15.6
  #     hydro 4 f 17.6
  #     hydro 4 d 14
  # Further basis functions - -0.08 meV and below
  #     hydro 3 s 2.1
  #     hydro 4 d 11.6
  #     hydro 3 p 16
  #     hydro 2 s 17.2
  ################################################################################
  #
  # For methods that use the localized form of the "resolution of identity" for
  # the two-electron Coulomb operator (RI_method LVL), particularly Hartree-Fock and
  # hybrid density functional calculations, the highest accuracy can be obtained by
  # uncommenting the line beginning with "for_aux"  below, thus adding an extra g radial
  # function to the construction of the product basis set for the expansion.
  # See Ref. New J. Phys. 17, 093020 (2015) for more information, particularly Figs. 1 and 6.
  #
  ################################################################################
  #
  # for_aux hydro 5 g 6.0
  
  -----------------------------------------------------------------------
  Completed first pass over input file control.in .
  -----------------------------------------------------------------------
  
  
  -----------------------------------------------------------------------
  Parsing geometry.in (first pass over file, find array dimensions only).
  The contents of geometry.in will be repeated verbatim below
  unless switched off by setting 'verbatim_writeout .false.' .
  in the first line of geometry.in .
  -----------------------------------------------------------------------
  
  #=======================================================
  # FHI-aims file: ./geometry.in
  # Created using the Atomic Simulation Environment (ASE)
  # Thu Mar 19 17:13:21 2020
  #=======================================================
  lattice_vector -1.8920999999999999 1.8920999999999999 4.7572999999999999
  lattice_vector 1.8920999999999999 -1.8920999999999999 4.7572999999999999
  lattice_vector 1.8920999999999999 1.8920999999999999 -4.7572999999999999
  atom_frac 0.7500000000000002 0.2500000000000001 0.5000000000000001 Ti
  atom_frac 0.0000000000000000 -0.0000000000000000 0.0000000000000000 Ti
  atom_frac 0.7918999999999998 0.7919000000000002 0.0000000000000001 O
  atom_frac 0.5419000000000000 0.0419000000000000 0.5000000000000000 O
  atom_frac 0.9581000000000001 0.4581000000000001 0.5000000000000001 O
  atom_frac 0.2081000000000000 0.2081000000000000 0.0000000000000000 O
  
  -----------------------------------------------------------------------
  Completed first pass over input file geometry.in .
  -----------------------------------------------------------------------
  

  Basic array size parameters:
  | Number of species                 :        2
  | Number of atoms                   :        6
  | Number of lattice vectors         :        3
  | Max. basis fn. angular momentum   :        4
  | Max. atomic/ionic basis occupied n:        4
  | Max. number of basis fn. types    :        3
  | Max. radial fns per species/type  :        7
  | Max. logarithmic grid size        :     1383
  | Max. radial integration grid size :       97
  | Max. angular integration grid size:      434
  | Max. angular grid division number :        8
  | Radial grid for Hartree potential :     1383
  | Number of spin channels           :        1

------------------------------------------------------------
          Reading file control.in.
------------------------------------------------------------
  XC: Using PBE gradient-corrected functionals.
  Spin treatment: No spin polarisation.
  Found k-point grid:         5         5         5
  Scalar relativistic treatment of kinetic energy: on-site free-atom approximation to ZORA.
  S.C.F. convergence parameters will be adjusted in iteration number     3 of each new s.c.f. cycle.
  Charge density mixing - mixing parameter:     0.0200
  Occupation type: Gaussian broadening, width =   0.200000E-01 eV.
 
  Reading configuration options for species Ti                  .
  | Found nuclear charge :  22.0000
  | Found atomic mass :    47.8670000000000      amu
  | Found l_max for Hartree potential  :   6
  | Found cutoff potl. onset [A], width [A], scale factor :    4.00000    2.00000    1.00000
  | Threshold for basis-dependent cutoff potential is   0.100000E-03
  | Found data for basic radial integration grid :    48 points, outermost radius =    7.000 A
  | Found multiplier for basic radial grid :   2
  | Found angular grid specification: user-specified.
  | Specified grid contains     6 separate shells.
  | Check grid settings after all constraints further below.
  | Found free-atom valence shell :  4 s   2.000
  | Found free-atom valence shell :  3 p   6.000
  | Found free-atom valence shell :  3 d   2.000
  | Found free-ion valence shell :  4 s   1.000
  | Found free-ion valence shell :  3 p   6.000
  | Found free-ion valence shell :  3 d   1.000
  | Found hydrogenic basis function :  4 f   8.000
  | Found hydrogenic basis function :  3 d   2.700
  | Found ionic basis function :  4 p , default cutoff radius.
  | Found hydrogenic basis function :  5 g  11.600
  | Found ionic basis function :  4 s , default cutoff radius.
  Species Ti                  : Missing cutoff potential type.
  Defaulting to exp(1/x)/(1-x)^2 type cutoff potential.
  Species Ti: No 'logarithmic' tag. Using default grid for free atom:
  | Default logarithmic grid data [bohr] : 0.1000E-03 0.1000E+03 0.1012E+01
  | Will include ionic basis functions of  2.0-fold positive Ti                   ion.
  Species Ti: On-site basis accuracy parameter (for Gram-Schmidt orthonormalisation) not specified.
  Using default value basis_acc =  0.1000000E-03.
  Species Ti                  : Using default innermost maximum threshold i_radial=  2 for radial functions.
  Species Ti                  : Default cutoff onset for free atom density etc. : 0.40000000E+01 AA.
  Species Ti                  : Basic radial grid will be enhanced according to radial_multiplier =   2, to contain    97 grid points.
 
  Reading configuration options for species O                   .
  | Found nuclear charge :   8.0000
  | Found atomic mass :    15.9994000000000      amu
  | Found l_max for Hartree potential  :   6
  | Found cutoff potl. onset [A], width [A], scale factor :    4.00000    2.00000    1.00000
  | Threshold for basis-dependent cutoff potential is   0.100000E-03
  | Found data for basic radial integration grid :    36 points, outermost radius =    7.000 A
  | Found multiplier for basic radial grid :   2
  | Found angular grid specification: user-specified.
  | Specified grid contains     6 separate shells.
  | Check grid settings after all constraints further below.
  | Found free-atom valence shell :  2 s   2.000
  | Found free-atom valence shell :  2 p   4.000
  | Found free-ion valence shell :  2 s   1.000
  | Found free-ion valence shell :  2 p   3.000
  | Found hydrogenic basis function :  2 p   1.800
  | Found hydrogenic basis function :  3 d   7.600
  | Found hydrogenic basis function :  3 s   6.400
  Species O                   : Missing cutoff potential type.
  Defaulting to exp(1/x)/(1-x)^2 type cutoff potential.
  Species O : No 'logarithmic' tag. Using default grid for free atom:
  | Default logarithmic grid data [bohr] : 0.1000E-03 0.1000E+03 0.1012E+01
  Species O : On-site basis accuracy parameter (for Gram-Schmidt orthonormalisation) not specified.
  Using default value basis_acc =  0.1000000E-03.
  Species O                   : Using default innermost maximum threshold i_radial=  2 for radial functions.
  Species O                   : Default cutoff onset for free atom density etc. : 0.40000000E+01 AA.
  Species O                   : Basic radial grid will be enhanced according to radial_multiplier =   2, to contain    73 grid points.
 
  Finished reading input file 'control.in'. Consistency checks are next.
 
  MPI_IN_PLACE appears to work with this MPI implementation.
  | Keeping use_mpi_in_place .true. (see manual).
  Target number of points in a grid batch is not set. Defaulting to  100
  Method for grid partitioning is not set. Defaulting to parallel hash+maxmin partitioning.
  Batch size limit is not set. Defaulting to    200
  By default, will store active basis functions for each batch.
  If in need of memory, prune_basis_once .false. can be used to disable this option.
  communication_type for Hartree potential was not specified.
  Defaulting to calc_hartree .
  Defaulting to Pulay charge density mixer.
  Pulay mixer: Number of relevant iterations not set.
  Defaulting to    8 iterations.
  Pulay mixer: Number of initial linear mixing iterations not set.
  Defaulting to    0 iterations.
  Work space size for distributed Hartree potential not set.
  Defaulting to   0.200000E+03 MB.
  Algorithm-dependent basis array size parameters:
  | n_max_pulay                         :        8
  Maximum number of self-consistency iterations not provided.
  Presetting  1000 iterations.
  Presetting      1001 iterations before the initial mixing cycle
  is restarted anyway using the sc_init_iter criterion / keyword.
  Presetting a factor      1.000 between actual scf density residual
  and density convergence criterion sc_accuracy_rho below which sc_init_iter
  takes no effect.
 * No s.c.f. convergence criteria (sc_accuracy_*) were provided in control.in.
 * The run will proceed with a reasonable default guess, but please check whether.
 * the s.c.f. cycles seem to take too much or too little time.
  Calculation of forces was not defined in control.in. No forces will be calculated.
  Geometry relaxation not requested: no relaxation will be performed.
 * Notice: The s.c.f. convergence criterion sc_accuracy_rho was not provided.
 * We used to stop in this case, and ask the user to provide reasonable
 * scf convergence criteria. However, this led some users to employ criteria
 * that led to extremely long run times, e.g., for simple relaxation.
 * We now preset a default value for sc_accuracy_rho if it is not set.
 * You may still wish to check if this setting is too tight or too loose for your needs.
 * Based on n_atoms, FHI-aims chose sc_accuracy_rho =  0.100000E-05 .
  No accuracy limit for integral partition fn. given. Defaulting to  0.1000E-14.
  No threshold value for u(r) in integrations given. Defaulting to  0.1000E-05.
  No accuracy for occupation numbers given. Defaulting to  0.1000E-12.
  No threshold value for occupation numbers given. Defaulting to  0.0000E+00.
  No accuracy for fermi level given. Defaulting to  0.1000E-19.
  Maximum # of iterations to find E_F not set. Defaulting to  200.
  Preferred method for the eigenvalue solver ('KS_method') not specified in 'control.in'.
  Defaulting to serial version, LAPACK (via ELSI), since more k-points than CPUs available.
  Will not use alltoall communication since running on < 1024 CPUs.
  Threshold for basis singularities not set.
  Default threshold for basis singularities:  0.1000E-04
  partition_type (choice of integration weights) for integrals was not specified.
  | Using a version of the partition function of Stratmann and coworkers ('stratmann_sparse').
  | At each grid point, the set of atoms used to build the partition table is smoothly restricted to
  | only those atoms whose free-atom density would be non-zero at that grid point.
  Partitioning for Hartree potential was not defined. Using partition_type for integrals.
  | Adjusted default value of keyword multip_moments_threshold to:       0.10000000E-11
  | This value may affect high angular momentum components of the Hartree potential in periodic systems.
  Angular momentum expansion for Kerker preconditioner not set explicitly.
  | Using default value of   0
  No explicit requirement for turning off preconditioner.
  | By default, it will be turned off when the charge convergence reaches
  | sc_accuracy_rho  =   0.100000E-05
  No special mixing parameter while Kerker preconditioner is on.
  Using default: charge_mix_param =     0.0200.
  No q(lm)/r^(l+1) cutoff set for long-range Hartree potential.
  | Using default value of  0.100000E-09 .
  | Verify using the multipole_threshold keyword.
  Defaulting to new monopole extrapolation.
  Density update method: automatic selection selected.
  Using density matrix based charge density update.
  Using density matrix based charge density update.
  Using packed matrix style: index .
  Defaulting to use time-reversal symmetry for k-point grid.
  Charge integration errors on the 3D integration grid will be compensated
  by explicit normalization and distribution of residual charges.
  Use the "compensate_multipole_errors" flag to change this behaviour.
------------------------------------------------------------


------------------------------------------------------------
          Reading geometry description geometry.in.
------------------------------------------------------------
  Input structure read successfully.
  The structure contains        6 atoms,  and a total of         76.000 electrons.

  Input geometry:
  | Unit cell:
  |       -1.89210000        1.89210000        4.75730000
  |        1.89210000       -1.89210000        4.75730000
  |        1.89210000        1.89210000       -4.75730000
  | Atomic structure:
  |       Atom                x [A]            y [A]            z [A]
  |    1: Species Ti            0.00000000        1.89210000        2.37865000
  |    2: Species Ti            0.00000000        0.00000000        0.00000000
  |    3: Species O             0.00000000       -0.00000000        7.53461174
  |    4: Species O            -0.00000000        1.89210000        0.39866174
  |    5: Species O             0.00000000        1.89210000        4.35863826
  |    6: Species O             0.00000000        0.00000000        1.97998826

  Lattice parameters for 3D lattice (in Angstroms) :     5.458204    5.458204    5.458204
  Angle(s) between unit vectors (in degrees)       :   139.434593  139.434593   58.712803

  | The smallest distance between any two atoms is         1.93364257 AA.
  | The first atom of this pair is atom number                      1 .
  | The second atom of this pair is atom number                     3 .
  | Wigner-Seitz cell of the first atom image           0     0     1 .
  | (The Wigner-Seitz cell of the second atom is 0 0 0  by definition.)

  Symmetry information by spglib:
  | Precision set to  0.1E-04
  | Number of Operations  : 16
  | Space group           : 141
  | International         : I4_1/amd dv
  | Schoenflies           : D4h^19

  Quantities derived from the lattice vectors:
  | Reciprocal lattice vector 1: -0.000000  1.660373  0.660373
  | Reciprocal lattice vector 2:  1.660373 -0.000000  0.660373
  | Reciprocal lattice vector 3:  1.660373  1.660373 -0.000000
  | Unit cell volume                               :   0.681253E+02  A^3

  Range separation radius for Ewald summation (hartree_convergence_parameter):      3.13276452 bohr.

  Fractional coordinates:
                         L1                L2                L3
       atom_frac         0.75000000        0.25000000        0.50000000  Ti
       atom_frac         0.00000000        0.00000000        0.00000000  Ti
       atom_frac         0.79190000        0.79190000        0.00000000  O
       atom_frac         0.54190000        0.04190000        0.50000000  O
       atom_frac         0.95810000        0.45810000        0.50000000  O
       atom_frac         0.20810000        0.20810000       -0.00000000  O

  Number of empty states per atom not set in control.in - providing a guess from actual geometry.
  | Total number of empty states used during s.c.f. cycle:       23
  If you use a very high smearing, use empty_states (per atom!) in control.in to increase this value.

  Structure-dependent array size parameters: 
  | Maximum number of distinct radial functions  :       18
  | Maximum number of basis functions            :      136
  | Number of Kohn-Sham states (occupied + empty):       61
------------------------------------------------------------

------------------------------------------------------------
          Preparing all fixed parts of the calculation.
------------------------------------------------------------
  Determining machine precision:
    2.225073858507201E-308
  Setting up grids for atomic and cluster calculations.

  Creating wave function, potential, and density for free atoms.

  Species: Ti

  List of occupied orbitals and eigenvalues:
    n    l              occ      energy [Ha]    energy [eV]
    1    0           2.0000      -179.971977     -4897.2867
    2    0           2.0000       -19.740069      -537.1546
    3    0           2.0000        -2.295181       -62.4550
    4    0           2.0000        -0.158903        -4.3240
    2    1           6.0000       -16.329721      -444.3543
    3    1           6.0000        -1.421430       -38.6791
    3    2           2.0000        -0.150533        -4.0962


  Species: O

  List of occupied orbitals and eigenvalues:
    n    l              occ      energy [Ha]    energy [eV]
    1    0           2.0000       -18.927378      -515.0401
    2    0           2.0000        -0.880539       -23.9607
    2    1           4.0000        -0.331811        -9.0290

  Creating fixed part of basis set: Ionic, confined, hydrogenic.
 
  Ti                   ion:

  List of free ionic orbitals and eigenvalues:
    n    l      energy [Ha]    energy [eV]
    1    0      -180.819616     -4920.3521
    2    0       -20.608761      -560.7929
    3    0        -3.115729       -84.7833
    4    0        -0.697188       -18.9715
    2    1       -17.196209      -467.9327
    3    1        -2.231296       -60.7167
    3    2        -0.911363       -24.7995


  List of ionic basis orbitals and eigenvalues:
    n    l      energy [Ha]    energy [eV]    outer radius [A]
    4    1        -0.519390       -14.1333       5.449321
    4    0        -0.697156       -18.9706       5.383109

 
  Ti                   hydrogenic:
 
  List of hydrogenic basis orbitals: 
    n    l      effective z      eigenvalue [eV]  inner max. [A]     outer max. [A]     outer radius [A]   
    4    3         8.000000       -54.4226           1.059019           1.059019           4.648601
    3    2         2.700000       -10.9576           1.748166           1.748166           5.449321
    5    4        11.600000       -73.2312           1.139618           1.139618           4.536321
 
 
  O                    hydrogenic:
 
  List of hydrogenic basis orbitals: 
    n    l      effective z      eigenvalue [eV]  inner max. [A]     outer max. [A]     outer radius [A]   
    2    1         1.800000       -11.0118           1.178562           1.178562           5.432602
    3    2         7.600000       -87.3182           0.624125           0.624125           3.541477
    3    0         6.400000       -61.9209           0.061167           1.081902           4.306578
 

  Adding cutoff potential to free-atom effective potential.
  Creating atomic-like basis functions for current effective potential.

  Species Ti                  :

  List of atomic basis orbitals and eigenvalues:
    n    l      energy [Ha]    energy [eV]    outer radius [A]
    1    0      -179.971977     -4897.2867       0.490254
    2    0       -19.740069      -537.1546       1.491292
    3    0        -2.295181       -62.4550       4.215492
    4    0        -0.158903        -4.3240       5.449321
    2    1       -16.329721      -444.3543       1.585290
    3    1        -1.421430       -38.6791       4.822253
    3    2        -0.150533        -4.0962       5.383109


  Species O                   :

  List of atomic basis orbitals and eigenvalues:
    n    l      energy [Ha]    energy [eV]    outer radius [A]
    1    0       -18.927378      -515.0401       1.415765
    2    0        -0.880539       -23.9607       5.048385
    2    1        -0.331811        -9.0290       5.301386

  Assembling full basis from fixed parts.
  | Species Ti :   atomic orbital   1 s accepted.
  | Species Ti :   atomic orbital   2 s accepted.
  | Species Ti :   atomic orbital   3 s accepted.
  | Species Ti :    ionic orbital   4 s accepted.
  | Species Ti :   atomic orbital   4 s accepted.
  | Species Ti :   atomic orbital   2 p accepted.
  | Species Ti :   atomic orbital   3 p accepted.
  | Species Ti :    ionic orbital   4 p accepted.
  | Species Ti :   atomic orbital   3 d accepted.
  | Species Ti :    hydro orbital   3 d accepted.
  | Species Ti :    hydro orbital   4 f accepted.
  | Species Ti :    hydro orbital   5 g accepted.
  | Species O :   atomic orbital   1 s accepted.
  | Species O :    hydro orbital   3 s accepted.
  | Species O :   atomic orbital   2 s accepted.
  | Species O :   atomic orbital   2 p accepted.
  | Species O :    hydro orbital   2 p accepted.
  | Species O :    hydro orbital   3 d accepted.
 
  Basis size parameters after reduction:
  | Total number of radial functions:       18
  | Total number of basis functions :      136
 
  Per-task memory consumption for arrays in subroutine allocate_ext:
  |           6.377288MB.
  Testing on-site integration grid accuracy.
  |  Species  Function  <phi|h_atom|phi> (log., in eV)  <phi|h_atom|phi> (rad., in eV)
           1        1              -4897.2866775048              -4897.2865281705
           1        2               -537.1546057165               -537.1546030101
           1        3                -62.4550461141                -62.4550457173
           1        4                 -3.5044071906                 -3.5043997442
           1        5                  4.8243353859                  4.8253021531
           1        6               -444.3543098526               -444.3543092932
           1        7                -38.6790689451                -38.6790687353
           1        8                 -0.0282770068                 -0.0282312865
           1        9                 -4.0966922458                 -4.0966843178
           1       10                  5.3329074064                  5.3332050496
           1       11                 27.5821189441                 27.5821192959
           1       12                 51.3154532434                 51.3154529981
           2       13               -515.0401491148               -515.0401445497
           2       14                 15.1629302771                 15.1629233102
           2       15                -21.6127103295                -21.6127145449
           2       16                 -9.0290718243                 -9.0290720379
           2       17                  7.9075681532                  7.9075643182
           2       18                 45.8331828879                 45.8331828941

  Preparing densities etc. for the partition functions (integrals / Hartree potential).

  Preparations completed.
  max(cpu_time)          :      0.338 s.
  Wall clock time (cpu1) :      0.389 s.
------------------------------------------------------------

------------------------------------------------------------
          Begin self-consistency loop: Initialization.

          Date     :  20200320, Time     :  114742.722
------------------------------------------------------------

  Initializing index lists of integration centers etc. from given atomic structure:
  Mapping all atomic coordinates to central unit cell.

  Initializing the k-points
  Using symmetry for reducing the k-points
  | k-points reduced from:      125 to       63
  | Number of k-points                             :        63
  The eigenvectors in the calculations are COMPLEX.
  | K-points in task   0:         2
  | K-points in task   1:         3
  | K-points in task   2:         3
  | K-points in task   3:         3
  | K-points in task   4:         3
  | K-points in task   5:         3
  | K-points in task   6:         3
  | K-points in task   7:         3
  | K-points in task   8:         3
  | K-points in task   9:         3
  | K-points in task  10:         3
  | K-points in task  11:         3
  | K-points in task  12:         3
  | K-points in task  13:         3
  | K-points in task  14:         3
  | K-points in task  15:         3
  | K-points in task  16:         2
  | K-points in task  17:         2
  | K-points in task  18:         2
  | K-points in task  19:         2
  | K-points in task  20:         2
  | K-points in task  21:         2
  | K-points in task  22:         2
  | K-points in task  23:         2
  | Number of basis functions in the Hamiltonian integrals :      4916
  | Number of basis functions in a single unit cell        :       136
  | Number of centers in hartree potential         :      1392
  | Number of centers in hartree multipole         :      1114
  | Number of centers in electron density summation:       774
  | Number of centers in basis integrals           :       856
  | Number of centers in integrals                 :       343
  | Number of centers in hamiltonian               :       774
  | Consuming        177 KiB for k_phase.
  | Number of super-cells (origin) [n_cells]                     :        1573
  | Number of super-cells (after PM_index) [n_cells]             :         180
  | Number of super-cells in hamiltonian [n_cells_in_hamiltonian]:         180
  | Size of matrix packed + index [n_hamiltonian_matrix_size] :      495937
  | Estimated reciprocal-space cutoff momentum G_max:         3.16963814 bohr^-1 .
  | Reciprocal lattice points for long-range Hartree potential:     252
  Partitioning the integration grid into batches with parallel hashing+maxmin method.
  | Number of batches:     1641
  | Maximal batch size:     113
  | Minimal batch size:       1
  | Average batch size:      73.792
  | Standard deviation of batch sizes:      18.593

  Integration load balanced across    24 MPI tasks.
  Work distribution over tasks is as follows:
  Task     0 has       5025 integration points.
  Task     1 has       5029 integration points.
  Task     2 has       5027 integration points.
  Task     3 has       5070 integration points.
  Task     4 has       5076 integration points.
  Task     5 has       5027 integration points.
  Task     6 has       5077 integration points.
  Task     7 has       5043 integration points.
  Task     8 has       5040 integration points.
  Task     9 has       5067 integration points.
  Task    10 has       5023 integration points.
  Task    11 has       5071 integration points.
  Task    12 has       5061 integration points.
  Task    13 has       5029 integration points.
  Task    14 has       5057 integration points.
  Task    15 has       5023 integration points.
  Task    16 has       5081 integration points.
  Task    17 has       5034 integration points.
  Task    18 has       5037 integration points.
  Task    19 has       5043 integration points.
  Task    20 has       5032 integration points.
  Task    21 has       5067 integration points.
  Task    22 has       5033 integration points.
  Task    23 has       5020 integration points.
  Initializing partition tables, free-atom densities, potentials, etc. across the integration grid (initialize_grid_storage).
  | initialize_grid_storage: Actual outermost partition radius vs. multipole_radius_free
  | (-- VB: in principle, multipole_radius_free should be larger, hence this output)
  | Species        1: Confinement radius =              6.000000000000000 AA, multipole_radius_free =              6.009195547060584 AA.
  | Species        1: outer_partition_radius set to              6.009195547060584 AA .
  | Species        2: Confinement radius =              6.000000000000000 AA, multipole_radius_free =              6.064445521808699 AA.
  | Species        2: outer_partition_radius set to              6.064445521808699 AA .
  | The sparse table of interatomic distances needs       6471.86 kbyte instead of      5861.89 kbyte of memory.
  | Using the partition_type stratmann_smoother will reduce your memory usage.
  | Net number of integration points:   121092
  | of which are non-zero points    :    85696
  | Numerical average free-atom electrostatic potential    :    -17.16082789 eV
  Renormalizing the initial density to the exact electron count on the 3D integration grid.
  | Initial density: Formal number of electrons (from input files) :      76.0000000000
  | Integrated number of electrons on 3D grid     :      75.9999367444
  | Charge integration error                      :      -0.0000632556
  | Normalization factor for density and gradient :       1.0000008323
  Renormalizing the free-atom superposition density to the exact electron count on the 3D integration grid.
  | Formal number of electrons (from input files) :      76.0000000000
  | Integrated number of electrons on 3D grid     :      75.9999367444
  | Charge integration error                      :      -0.0000632556
  | Normalization factor for density and gradient :       1.0000008323
  Obtaining max. number of non-zero basis functions in each batch (get_n_compute_maxes).
  | Maximal number of non-zero basis functions:     1186 in task     0
  | Maximal number of non-zero basis functions:     1176 in task     1
  | Maximal number of non-zero basis functions:     1184 in task     2
  | Maximal number of non-zero basis functions:     1182 in task     3
  | Maximal number of non-zero basis functions:     1185 in task     4
  | Maximal number of non-zero basis functions:     1192 in task     5
  | Maximal number of non-zero basis functions:     1217 in task     6
  | Maximal number of non-zero basis functions:     1223 in task     7
  | Maximal number of non-zero basis functions:     1189 in task     8
  | Maximal number of non-zero basis functions:     1193 in task     9
  | Maximal number of non-zero basis functions:     1199 in task    10
  | Maximal number of non-zero basis functions:     1187 in task    11
  | Maximal number of non-zero basis functions:     1185 in task    12
  | Maximal number of non-zero basis functions:     1213 in task    13
  | Maximal number of non-zero basis functions:     1187 in task    14
  | Maximal number of non-zero basis functions:     1204 in task    15
  | Maximal number of non-zero basis functions:     1190 in task    16
  | Maximal number of non-zero basis functions:     1188 in task    17
  | Maximal number of non-zero basis functions:     1220 in task    18
  | Maximal number of non-zero basis functions:     1202 in task    19
  | Maximal number of non-zero basis functions:     1197 in task    20
  | Maximal number of non-zero basis functions:     1193 in task    21
  | Maximal number of non-zero basis functions:     1197 in task    22
  | Maximal number of non-zero basis functions:     1215 in task    23
  Allocating        0.253 MB for KS_eigenvector_complex
  Integrating Hamiltonian matrix: batch-based integration.
  Time summed over all CPUs for integration: real work       32.177 s, elapsed       32.891 s
  Integrating overlap matrix.
  Time summed over all CPUs for integration: real work       24.757 s, elapsed       25.408 s
  Decreasing sparse matrix size:
  | Tolerance:  0.1000E-12
  Hamiltonian matrix
  | Array has   383395 nonzero elements out of   495937 elements
  | Sparsity factor is 0.227
  Overlap matrix
  | Array has   354992 nonzero elements out of   495937 elements
  | Sparsity factor is 0.284
  New size of hamiltonian matrix:      384925

  Updating Kohn-Sham eigenvalues and eigenvectors using ELSI and the (modified) LAPACK eigensolver.
  Singularity check in k-point 24, task 0 (analysis for other k-points/tasks may follow below):
  Overlap matrix is not singular
  | Lowest and highest eigenvalues :  0.5316E-03,  0.8860E+01
  Finished singularity check of overlap matrix
  | Time :     0.020 s
  Starting LAPACK eigensolver
  Finished Cholesky decomposition
  | Time :     0.017 s
  Finished transformation to standard eigenproblem
  | Time :     0.001 s
  Finished solving standard eigenproblem
  | Time :     0.003 s
  Finished back-transformation of eigenvectors
  | Time :     0.001 s

  Obtaining occupation numbers and chemical potential using ELSI.
  | Chemical potential (Fermi level):    -6.11897854 eV
  Writing Kohn-Sham eigenvalues.
  K-point:       1 at    0.000000    0.000000    0.000000 (in units of recip. lattice)

  State    Occupation    Eigenvalue [Ha]    Eigenvalue [eV]
      1       2.00000        -179.989239        -4897.75640
      2       2.00000        -179.989239        -4897.75640
      3       2.00000         -19.758614         -537.65923
      4       2.00000         -19.758614         -537.65923
      5       2.00000         -19.064101         -518.76058
      6       2.00000         -19.064101         -518.76058
      7       2.00000         -19.064101         -518.76058
      8       2.00000         -19.064101         -518.76058
      9       2.00000         -16.348147         -444.85571
     10       2.00000         -16.348147         -444.85571
     11       2.00000         -16.347991         -444.85147
     12       2.00000         -16.347991         -444.85147
     13       2.00000         -16.347991         -444.85147
     14       2.00000         -16.347991         -444.85147
     15       2.00000          -2.332453          -63.46927
     16       2.00000          -2.329546          -63.39018
     17       2.00000          -1.483006          -40.35466
     18       2.00000          -1.468215          -39.95216
     19       2.00000          -1.468215          -39.95216
     20       2.00000          -1.464615          -39.85420
     21       2.00000          -1.464615          -39.85420
     22       2.00000          -1.461483          -39.76897
     23       2.00000          -1.094513          -29.78320
     24       2.00000          -1.063730          -28.94556
     25       2.00000          -1.053301          -28.66177
     26       2.00000          -1.048368          -28.52753
     27       2.00000          -0.564013          -15.34758
     28       2.00000          -0.562701          -15.31188
     29       2.00000          -0.562701          -15.31188
     30       2.00000          -0.549510          -14.95293
     31       2.00000          -0.513138          -13.96321
     32       2.00000          -0.509053          -13.85203
     33       2.00000          -0.509053          -13.85203
     34       2.00000          -0.476446          -12.96477
     35       2.00000          -0.475561          -12.94068
     36       2.00000          -0.475561          -12.94068
     37       2.00000          -0.468286          -12.74272
     38       2.00000          -0.468286          -12.74272
     39       0.00000          -0.221651           -6.03144
     40       0.00000          -0.185195           -5.03941
     41       0.00000          -0.166255           -4.52402
     42       0.00000          -0.166255           -4.52402
     43       0.00000          -0.160794           -4.37543
     44       0.00000          -0.160794           -4.37543
     45       0.00000          -0.121883           -3.31661
     46       0.00000          -0.113990           -3.10181
     47       0.00000          -0.102262           -2.78269
     48       0.00000          -0.098135           -2.67039
     49       0.00000          -0.072369           -1.96926
     50       0.00000           0.089182            2.42676
     51       0.00000           0.166118            4.52030
     52       0.00000           0.280715            7.63863
     53       0.00000           0.280715            7.63863
     54       0.00000           0.290322            7.90008
     55       0.00000           0.290322            7.90008
     56       0.00000           0.302040            8.21891
     57       0.00000           0.303107            8.24796
     58       0.00000           0.348018            9.47004
     59       0.00000           0.420230           11.43504
     60       0.00000           0.547122           14.88794
     61       0.00000           0.550230           14.97252

  What follows are estimated values for band gap, HOMO, LUMO, etc.
  | They are estimated on a discrete k-point grid and not necessarily exact.
  | For converged numbers, create a DOS and/or band structure plot on a denser k-grid.

  Highest occupied state (VBM) at    -12.34749350 eV (relative to internal zero)
  | Occupation number:      2.00000000
  | K-point:       3 at    0.000000    0.000000    0.400000 (in units of recip. lattice)

  Lowest unoccupied state (CBM) at    -6.03143916 eV (relative to internal zero)
  | Occupation number:      0.00000000
  | K-point:       1 at    0.000000    0.000000    0.000000 (in units of recip. lattice)

  ESTIMATED overall HOMO-LUMO gap:      6.31605434 eV between HOMO at k-point 3 and LUMO at k-point 1
  | This appears to be an indirect band gap.
  | Smallest direct gap :      6.68021521 eV for k_point 21 at    0.000000    0.000000    0.000000 (in units of recip. lattice)
  The gap value is above 0.2 eV. Unless you are using a very sparse k-point grid,
  this system is most likely an insulator or a semiconductor.
  Calculating total energy contributions from superposition of free atom densities.

  Total energy components:
  | Sum of eigenvalues            :       -1195.61869554 Ha      -32534.44003977 eV
  | XC energy correction          :        -118.33704397 Ha       -3220.11480418 eV
  | XC potential correction       :         153.01371330 Ha        4163.71498633 eV
  | Free-atom electrostatic energy:        -853.31406553 Ha      -23219.85713649 eV
  | Hartree energy correction     :           0.00000000 Ha           0.00000000 eV
  | Entropy correction            :          -0.00000000 Ha          -0.00000000 eV
  | ---------------------------
  | Total energy                  :       -2014.25609175 Ha      -54810.69699410 eV
  | Total energy, T -> 0          :       -2014.25609175 Ha      -54810.69699410 eV  <-- do not rely on this value for anything but (periodic) metals
  | Electronic free energy        :       -2014.25609175 Ha      -54810.69699410 eV

  Derived energy quantities:
  | Kinetic energy                :        2026.86318176 Ha       55153.75336783 eV
  | Electrostatic energy          :       -3922.78222954 Ha     -106744.33555775 eV
  | Energy correction for multipole
  | error in Hartree potential    :           0.00000000 Ha           0.00000000 eV
  | Sum of eigenvalues per atom                           :       -5422.40667329 eV
  | Total energy (T->0) per atom                          :       -9135.11616568 eV  <-- do not rely on this value for anything but (periodic) metals
  | Electronic free energy per atom                       :       -9135.11616568 eV
  Initialize hartree_potential_storage
  Max. number of atoms included in rho_multipole:            6

  End scf initialization - timings             :  max(cpu_time)    wall_clock(cpu1)
  | Time for scf. initialization               :        4.011 s           4.053 s
  | Boundary condition initialization          :        0.102 s           0.104 s
  | Integration                                :        2.463 s           2.463 s
  | Solution of K.-S. eqns.                    :        0.052 s           0.076 s
  | Grid partitioning                          :        0.186 s           0.187 s
  | Preloading free-atom quantities on grid    :        0.020 s           0.020 s
  | Free-atom superposition energy             :        0.073 s           0.073 s
  | Total energy evaluation                    :        0.000 s           0.000 s

  Partial memory accounting:
  | Current value for overall tracked memory usage:
  |   Minimum:        7.596 MB (on task  0)
  |   Maximum:        7.722 MB (on task  1)
  |   Average:        7.675 MB
  | Peak value for overall tracked memory usage:
  |   Minimum:       23.459 MB (on task  1 after allocating wave)
  |   Maximum:       24.442 MB (on task  7 after allocating wave)
  |   Average:       23.827 MB
  | Largest tracked array allocation so far:
  |   Minimum:       10.551 MB (hamiltonian_shell on task  1)
  |   Maximum:       11.412 MB (hamiltonian_shell on task  7)
  |   Average:       10.914 MB
  Note:  These values currently only include a subset of arrays which are explicitly tracked.
  The "true" memory usage will be greater.
------------------------------------------------------------

------------------------------------------------------------
          Begin self-consistency iteration #    1

  Date     :  20200320, Time     :  114746.778
------------------------------------------------------------
  Evaluating new KS density using the density matrix
  Evaluating density matrix
  Time summed over all CPUs for getting density from density matrix: real work       58.300 s, elapsed       59.369 s
  Integration grid: deviation in total charge (<rho> - N_e) =   4.817480E-12
  Pulay mixing of updated and previous charge densities.
  Renormalizing the density to the exact electron count on the 3D integration grid.
  | Formal number of electrons (from input files) :      76.0000000000
  | Integrated number of electrons on 3D grid     :      75.9995027966
  | Charge integration error                      :      -0.0004972034
  | Normalization factor for density and gradient :       1.0000065422

  Evaluating partitioned Hartree potential by multipole expansion.
  | Original multipole sum: apparent total charge =  -0.205053E-13
  | Sum of charges compensated after spline to logarithmic grids =  -0.168596E-07
  | Analytical far-field extrapolation by fixed multipoles:
  | Hartree multipole sum: apparent total charge =  -0.205898E-13
  Summing up the Hartree potential.
  Time summed over all CPUs for potential: real work       12.476 s, elapsed       12.900 s
  | RMS charge density error from multipole expansion :   0.218404E-03
  | Average real-space part of the electrostatic potential :      0.02212614 eV

  Integrating Hamiltonian matrix: batch-based integration.
  Time summed over all CPUs for integration: real work       31.156 s, elapsed       31.933 s

  Updating Kohn-Sham eigenvalues and eigenvectors using ELSI and the (modified) LAPACK eigensolver.
  Starting LAPACK eigensolver
  Finished Cholesky decomposition
  | Time :     0.001 s
  Finished transformation to standard eigenproblem
  | Time :     0.001 s
  Finished solving standard eigenproblem
  | Time :     0.003 s
  Finished back-transformation of eigenvectors
  | Time :     0.000 s

  Obtaining occupation numbers and chemical potential using ELSI.
  | Chemical potential (Fermi level):    -6.20160557 eV
  Writing Kohn-Sham eigenvalues.
  K-point:       1 at    0.000000    0.000000    0.000000 (in units of recip. lattice)

  State    Occupation    Eigenvalue [Ha]    Eigenvalue [eV]
      1       2.00000        -179.997270        -4897.97493
      2       2.00000        -179.997270        -4897.97493
      3       2.00000         -19.766768         -537.88112
      4       2.00000         -19.766768         -537.88112
      5       2.00000         -19.052369         -518.44134
      6       2.00000         -19.052369         -518.44134
      7       2.00000         -19.052369         -518.44134
      8       2.00000         -19.052369         -518.44134
      9       2.00000         -16.356321         -445.07815
     10       2.00000         -16.356321         -445.07815
     11       2.00000         -16.356168         -445.07399
     12       2.00000         -16.356168         -445.07399
     13       2.00000         -16.356168         -445.07399
     14       2.00000         -16.356168         -445.07399
     15       2.00000          -2.337577          -63.60871
     16       2.00000          -2.334708          -63.53065
     17       2.00000          -1.487274          -40.47078
     18       2.00000          -1.472857          -40.07847
     19       2.00000          -1.472857          -40.07847
     20       2.00000          -1.469309          -39.98193
     21       2.00000          -1.469309          -39.98193
     22       2.00000          -1.466201          -39.89735
     23       2.00000          -1.090186          -29.66547
     24       2.00000          -1.059030          -28.81767
     25       2.00000          -1.049005          -28.54487
     26       2.00000          -1.043571          -28.39702
     27       2.00000          -0.560541          -15.25309
     28       2.00000          -0.559314          -15.21971
     29       2.00000          -0.559314          -15.21971
     30       2.00000          -0.545966          -14.85650
     31       2.00000          -0.508867          -13.84697
     32       2.00000          -0.504908          -13.73925
     33       2.00000          -0.504908          -13.73925
     34       2.00000          -0.471693          -12.83543
     35       2.00000          -0.470863          -12.81282
     36       2.00000          -0.470863          -12.81282
     37       2.00000          -0.463323          -12.60766
     38       2.00000          -0.463323          -12.60766
     39       0.00000          -0.224688           -6.11406
     40       0.00000          -0.188740           -5.13587
     41       0.00000          -0.168839           -4.59435
     42       0.00000          -0.168839           -4.59435
     43       0.00000          -0.163722           -4.45511
     44       0.00000          -0.163722           -4.45511
     45       0.00000          -0.121222           -3.29861
     46       0.00000          -0.117164           -3.18819
     47       0.00000          -0.105686           -2.87586
     48       0.00000          -0.101655           -2.76616
     49       0.00000          -0.074410           -2.02479
     50       0.00000           0.090848            2.47211
     51       0.00000           0.166890            4.54131
     52       0.00000           0.281782            7.66767
     53       0.00000           0.281782            7.66767
     54       0.00000           0.290748            7.91166
     55       0.00000           0.290748            7.91166
     56       0.00000           0.302477            8.23081
     57       0.00000           0.303416            8.25638
     58       0.00000           0.347683            9.46094
     59       0.00000           0.418399           11.38520
     60       0.00000           0.547369           14.89466
     61       0.00000           0.548904           14.93643

  What follows are estimated values for band gap, HOMO, LUMO, etc.
  | They are estimated on a discrete k-point grid and not necessarily exact.
  | For converged numbers, create a DOS and/or band structure plot on a denser k-grid.

  Highest occupied state (VBM) at    -12.20904178 eV (relative to internal zero)
  | Occupation number:      2.00000000
  | K-point:      44 at    0.400000    0.600000    0.000000 (in units of recip. lattice)

  Lowest unoccupied state (CBM) at    -6.11406239 eV (relative to internal zero)
  | Occupation number:      0.00000000
  | K-point:       1 at    0.000000    0.000000    0.000000 (in units of recip. lattice)

  ESTIMATED overall HOMO-LUMO gap:      6.09497939 eV between HOMO at k-point 44 and LUMO at k-point 1
  | This appears to be an indirect band gap.
  | Smallest direct gap :      6.46016423 eV for k_point 21 at    0.000000    0.000000    0.000000 (in units of recip. lattice)
  The gap value is above 0.2 eV. Unless you are using a very sparse k-point grid,
  this system is most likely an insulator or a semiconductor.

  Total energy components:
  | Sum of eigenvalues            :       -1195.63073033 Ha      -32534.76752302 eV
  | XC energy correction          :        -118.35364107 Ha       -3220.56643426 eV
  | XC potential correction       :         153.03460460 Ha        4164.28346746 eV
  | Free-atom electrostatic energy:        -853.31406553 Ha      -23219.85713649 eV
  | Hartree energy correction     :           0.04084392 Ha           1.11141972 eV
  | Entropy correction            :          -0.00000000 Ha          -0.00000000 eV
  | ---------------------------
  | Total energy                  :       -2014.22298842 Ha      -54809.79620658 eV
  | Total energy, T -> 0          :       -2014.22298842 Ha      -54809.79620658 eV  <-- do not rely on this value for anything but (periodic) metals
  | Electronic free energy        :       -2014.22298842 Ha      -54809.79620658 eV

  Derived energy quantities:
  | Kinetic energy                :        2026.99094035 Ha       55157.22985600 eV
  | Electrostatic energy          :       -3922.86028770 Ha     -106746.45962833 eV
  | Energy correction for multipole
  | error in Hartree potential    :          -0.00019120 Ha          -0.00520283 eV
  | Sum of eigenvalues per atom                           :       -5422.46125384 eV
  | Total energy (T->0) per atom                          :       -9134.96603443 eV  <-- do not rely on this value for anything but (periodic) metals
  | Electronic free energy per atom                       :       -9134.96603443 eV

  Self-consistency convergence accuracy:
  | Change of charge density      :  0.7671E+00
  | Change of sum of eigenvalues  : -0.3275E+00 eV
  | Change of total energy        :  0.9008E+00 eV

  End self-consistency iteration #     1       :  max(cpu_time)    wall_clock(cpu1)
  | Time for this iteration                    :        4.741 s           4.742 s
  | Charge density update                      :        2.492 s           2.492 s
  | Density mixing & preconditioning           :        0.286 s           0.287 s
  | Hartree multipole update                   :        0.002 s           0.002 s
  | Hartree multipole summation                :        0.546 s           0.546 s
  | Integration                                :        1.371 s           1.382 s
  | Solution of K.-S. eqns.                    :        0.032 s           0.032 s
  | Total energy evaluation                    :        0.000 s           0.000 s

  Partial memory accounting:
  | Current value for overall tracked memory usage:
  |   Minimum:        7.596 MB (on task  0)
  |   Maximum:        7.722 MB (on task  1)
  |   Average:        7.675 MB
  | Peak value for overall tracked memory usage:
  |   Minimum:       24.357 MB (on task  1 after allocating gradient_basis_wave)
  |   Maximum:       25.460 MB (on task  7 after allocating gradient_basis_wave)
  |   Average:       24.776 MB
  | Largest tracked array allocation so far:
  |   Minimum:       10.551 MB (hamiltonian_shell on task  1)
  |   Maximum:       11.412 MB (hamiltonian_shell on task  7)
  |   Average:       10.914 MB
  Note:  These values currently only include a subset of arrays which are explicitly tracked.
  The "true" memory usage will be greater.
------------------------------------------------------------

------------------------------------------------------------
          Begin self-consistency iteration #    2

  Date     :  20200320, Time     :  114751.521
------------------------------------------------------------
  Evaluating new KS density using the density matrix
  Evaluating density matrix
  Time summed over all CPUs for getting density from density matrix: real work       58.182 s, elapsed       59.284 s
  Integration grid: deviation in total charge (<rho> - N_e) =   4.817480E-12
  Pulay mixing of updated and previous charge densities.
  Renormalizing the density to the exact electron count on the 3D integration grid.
  | Formal number of electrons (from input files) :      76.0000000000
  | Integrated number of electrons on 3D grid     :      75.9900286215
  | Charge integration error                      :      -0.0099713785
  | Normalization factor for density and gradient :       1.0001312196

  Evaluating partitioned Hartree potential by multipole expansion.
  | Original multipole sum: apparent total charge =   0.860921E-15
  | Sum of charges compensated after spline to logarithmic grids =  -0.322866E-06
  | Analytical far-field extrapolation by fixed multipoles:
  | Hartree multipole sum: apparent total charge =  -0.245977E-16
  Summing up the Hartree potential.
  Time summed over all CPUs for potential: real work       13.297 s, elapsed       13.696 s
  | RMS charge density error from multipole expansion :   0.458650E-02
  | Average real-space part of the electrostatic potential :      0.45458878 eV

  Integrating Hamiltonian matrix: batch-based integration.
  Time summed over all CPUs for integration: real work       31.150 s, elapsed       31.852 s

  Updating Kohn-Sham eigenvalues and eigenvectors using ELSI and the (modified) LAPACK eigensolver.
  Starting LAPACK eigensolver
  Finished Cholesky decomposition
  | Time :     0.000 s
  Finished transformation to standard eigenproblem
  | Time :     0.001 s
  Finished solving standard eigenproblem
  | Time :     0.003 s
  Finished back-transformation of eigenvectors
  | Time :     0.000 s

  Obtaining occupation numbers and chemical potential using ELSI.
  | Chemical potential (Fermi level):    -7.92058935 eV
  What follows are estimated values for band gap, HOMO, LUMO, etc.
  | They are estimated on a discrete k-point grid and not necessarily exact.
  | For converged numbers, create a DOS and/or band structure plot on a denser k-grid.

  Highest occupied state (VBM) at     -9.60362654 eV (relative to internal zero)
  | Occupation number:      2.00000000
  | K-point:       3 at    0.000000    0.000000    0.400000 (in units of recip. lattice)

  Lowest unoccupied state (CBM) at    -7.83302876 eV (relative to internal zero)
  | Occupation number:      0.00000000
  | K-point:       1 at    0.000000    0.000000    0.000000 (in units of recip. lattice)

  ESTIMATED overall HOMO-LUMO gap:      1.77059778 eV between HOMO at k-point 3 and LUMO at k-point 1
  | This appears to be an indirect band gap.
  | Smallest direct gap :      2.14386979 eV for k_point 21 at    0.000000    0.000000    0.000000 (in units of recip. lattice)
  The gap value is above 0.2 eV. Unless you are using a very sparse k-point grid,
  this system is most likely an insulator or a semiconductor.

  Total energy components:
  | Sum of eigenvalues            :       -1196.12125070 Ha      -32548.11526136 eV
  | XC energy correction          :        -118.68893021 Ha       -3229.69011573 eV
  | XC potential correction       :         153.45682745 Ha        4175.77273601 eV
  | Free-atom electrostatic energy:        -853.31406553 Ha      -23219.85713649 eV
  | Hartree energy correction     :           0.75877009 Ha          20.64718457 eV
  | Entropy correction            :          -0.00000000 Ha          -0.00000000 eV
  | ---------------------------
  | Total energy                  :       -2013.90864890 Ha      -54801.24259300 eV
  | Total energy, T -> 0          :       -2013.90864890 Ha      -54801.24259300 eV  <-- do not rely on this value for anything but (periodic) metals
  | Electronic free energy        :       -2013.90864890 Ha      -54801.24259300 eV

  Derived energy quantities:
  | Kinetic energy                :        2029.02756517 Ha       55212.64923689 eV
  | Electrostatic energy          :       -3924.24728386 Ha     -106784.20171417 eV
  | Energy correction for multipole
  | error in Hartree potential    :          -0.00419217 Ha          -0.11407462 eV
  | Sum of eigenvalues per atom                           :       -5424.68587689 eV
  | Total energy (T->0) per atom                          :       -9133.54043217 eV  <-- do not rely on this value for anything but (periodic) metals
  | Electronic free energy per atom                       :       -9133.54043217 eV

  Self-consistency convergence accuracy:
  | Change of charge density      :  0.7320E+00
  | Change of sum of eigenvalues  : -0.1335E+02 eV
  | Change of total energy        :  0.8554E+01 eV

  End self-consistency iteration #     2       :  max(cpu_time)    wall_clock(cpu1)
  | Time for this iteration                    :        4.727 s           4.727 s
  | Charge density update                      :        2.487 s           2.487 s
  | Density mixing & preconditioning           :        0.286 s           0.287 s
  | Hartree multipole update                   :        0.002 s           0.002 s
  | Hartree multipole summation                :        0.582 s           0.582 s
  | Integration                                :        1.340 s           1.340 s
  | Solution of K.-S. eqns.                    :        0.028 s           0.029 s
  | Total energy evaluation                    :        0.000 s           0.000 s

  Partial memory accounting:
  | Current value for overall tracked memory usage:
  |   Minimum:        7.596 MB (on task  0)
  |   Maximum:        7.723 MB (on task  1)
  |   Average:        7.675 MB
  | Peak value for overall tracked memory usage:
  |   Minimum:       24.357 MB (on task  1 after allocating gradient_basis_wave)
  |   Maximum:       25.460 MB (on task  7 after allocating gradient_basis_wave)
  |   Average:       24.776 MB
  | Largest tracked array allocation so far:
  |   Minimum:       10.551 MB (hamiltonian_shell on task  1)
  |   Maximum:       11.412 MB (hamiltonian_shell on task  7)
  |   Average:       10.914 MB
  Note:  These values currently only include a subset of arrays which are explicitly tracked.
  The "true" memory usage will be greater.
------------------------------------------------------------

------------------------------------------------------------
          Begin self-consistency iteration #    3

  Date     :  20200320, Time     :  114756.249
------------------------------------------------------------
  Evaluating new KS density using the density matrix
  Evaluating density matrix
  Time summed over all CPUs for getting density from density matrix: real work       58.185 s, elapsed       59.240 s
  Integration grid: deviation in total charge (<rho> - N_e) =   4.803269E-12
  Pulay mixing of updated and previous charge densities.
  Renormalizing the density to the exact electron count on the 3D integration grid.
  | Formal number of electrons (from input files) :      76.0000000000
  | Integrated number of electrons on 3D grid     :      76.0022545115
  | Charge integration error                      :       0.0022545115
  | Normalization factor for density and gradient :       0.9999703363

  Evaluating partitioned Hartree potential by multipole expansion.
  | Original multipole sum: apparent total charge =   0.509911E-13
  | Sum of charges compensated after spline to logarithmic grids =  -0.212047E-06
  | Analytical far-field extrapolation by fixed multipoles:
  | Hartree multipole sum: apparent total charge =   0.514093E-13
  Summing up the Hartree potential.
  Time summed over all CPUs for potential: real work       13.174 s, elapsed       13.587 s
  | RMS charge density error from multipole expansion :   0.354441E-02
  | Average real-space part of the electrostatic potential :      0.33658523 eV

  Integrating Hamiltonian matrix: batch-based integration.
  Time summed over all CPUs for integration: real work       31.066 s, elapsed       31.758 s

  Updating Kohn-Sham eigenvalues and eigenvectors using ELSI and the (modified) LAPACK eigensolver.
  Starting LAPACK eigensolver
  Finished Cholesky decomposition
  | Time :     0.000 s
  Finished transformation to standard eigenproblem
  | Time :     0.001 s
  Finished solving standard eigenproblem
  | Time :     0.003 s
  Finished back-transformation of eigenvectors
  | Time :     0.001 s

  Obtaining occupation numbers and chemical potential using ELSI.
  | Chemical potential (Fermi level):    -7.38388697 eV
  What follows are estimated values for band gap, HOMO, LUMO, etc.
  | They are estimated on a discrete k-point grid and not necessarily exact.
  | For converged numbers, create a DOS and/or band structure plot on a denser k-grid.

  Highest occupied state (VBM) at    -10.34408729 eV (relative to internal zero)
  | Occupation number:      2.00000000
  | K-point:      44 at    0.400000    0.600000    0.000000 (in units of recip. lattice)

  Lowest unoccupied state (CBM) at    -7.29632423 eV (relative to internal zero)
  | Occupation number:      0.00000000
  | K-point:       1 at    0.000000    0.000000    0.000000 (in units of recip. lattice)

  ESTIMATED overall HOMO-LUMO gap:      3.04776305 eV between HOMO at k-point 44 and LUMO at k-point 1
  | This appears to be an indirect band gap.
  | Smallest direct gap :      3.42167590 eV for k_point 21 at    0.000000    0.000000    0.000000 (in units of recip. lattice)
  The gap value is above 0.2 eV. Unless you are using a very sparse k-point grid,
  this system is most likely an insulator or a semiconductor.

  Checking to see if s.c.f. parameters should be adjusted.

  Total energy components:
  | Sum of eigenvalues            :       -1195.88410390 Ha      -32541.66216876 eV
  | XC energy correction          :        -118.58913419 Ha       -3226.97452801 eV
  | XC potential correction       :         153.33141392 Ha        4172.36006013 eV
  | Free-atom electrostatic energy:        -853.31406553 Ha      -23219.85713649 eV
  | Hartree energy correction     :           0.52723855 Ha          14.34689099 eV
  | Entropy correction            :          -0.00000000 Ha          -0.00000000 eV
  | ---------------------------
  | Total energy                  :       -2013.92865115 Ha      -54801.78688214 eV
  | Total energy, T -> 0          :       -2013.92865115 Ha      -54801.78688214 eV  <-- do not rely on this value for anything but (periodic) metals
  | Electronic free energy        :       -2013.92865115 Ha      -54801.78688214 eV

  Derived energy quantities:
  | Kinetic energy                :        2028.52612301 Ha       55199.00430142 eV
  | Electrostatic energy          :       -3923.86563997 Ha     -106773.81665554 eV
  | Energy correction for multipole
  | error in Hartree potential    :          -0.00320237 Ha          -0.08714084 eV
  | Sum of eigenvalues per atom                           :       -5423.61036146 eV
  | Total energy (T->0) per atom                          :       -9133.63114702 eV  <-- do not rely on this value for anything but (periodic) metals
  | Electronic free energy per atom                       :       -9133.63114702 eV

  Self-consistency convergence accuracy:
  | Change of charge density      :  0.1970E+00
  | Change of sum of eigenvalues  :  0.6453E+01 eV
  | Change of total energy        : -0.5443E+00 eV

  End self-consistency iteration #     3       :  max(cpu_time)    wall_clock(cpu1)
  | Time for this iteration                    :        4.717 s           4.717 s
  | Charge density update                      :        2.486 s           2.485 s
  | Density mixing & preconditioning           :        0.286 s           0.287 s
  | Hartree multipole update                   :        0.002 s           0.002 s
  | Hartree multipole summation                :        0.577 s           0.578 s
  | Integration                                :        1.336 s           1.336 s
  | Solution of K.-S. eqns.                    :        0.028 s           0.028 s
  | Total energy evaluation                    :        0.000 s           0.000 s

  Partial memory accounting:
  | Current value for overall tracked memory usage:
  |   Minimum:        7.596 MB (on task  0)
  |   Maximum:        7.723 MB (on task  1)
  |   Average:        7.675 MB
  | Peak value for overall tracked memory usage:
  |   Minimum:       24.357 MB (on task  1 after allocating gradient_basis_wave)
  |   Maximum:       25.461 MB (on task  7 after allocating gradient_basis_wave)
  |   Average:       24.776 MB
  | Largest tracked array allocation so far:
  |   Minimum:       10.551 MB (hamiltonian_shell on task  1)
  |   Maximum:       11.412 MB (hamiltonian_shell on task  7)
  |   Average:       10.914 MB
  Note:  These values currently only include a subset of arrays which are explicitly tracked.
  The "true" memory usage will be greater.
------------------------------------------------------------

------------------------------------------------------------
          Begin self-consistency iteration #    4

  Date     :  20200320, Time     :  114800.967
------------------------------------------------------------
  Evaluating new KS density using the density matrix
  Evaluating density matrix
  Time summed over all CPUs for getting density from density matrix: real work       58.209 s, elapsed       60.205 s
  Integration grid: deviation in total charge (<rho> - N_e) =   4.803269E-12
  Pulay mixing of updated and previous charge densities.
  Renormalizing the density to the exact electron count on the 3D integration grid.
  | Formal number of electrons (from input files) :      76.0000000000
  | Integrated number of electrons on 3D grid     :      75.9839905544
  | Charge integration error                      :      -0.0160094456
  | Normalization factor for density and gradient :       1.0002106950

  Evaluating partitioned Hartree potential by multipole expansion.
  | Original multipole sum: apparent total charge =   0.673240E-13
  | Sum of charges compensated after spline to logarithmic grids =   0.305941E-06
  | Analytical far-field extrapolation by fixed multipoles:
  | Hartree multipole sum: apparent total charge =   0.682587E-13
  Summing up the Hartree potential.
  Time summed over all CPUs for potential: real work       13.632 s, elapsed       14.068 s
  | RMS charge density error from multipole expansion :   0.966345E-02
  | Average real-space part of the electrostatic potential :      0.55945236 eV

  Integrating Hamiltonian matrix: batch-based integration.
  Time summed over all CPUs for integration: real work       31.121 s, elapsed       31.796 s

  Updating Kohn-Sham eigenvalues and eigenvectors using ELSI and the (modified) LAPACK eigensolver.
  Starting LAPACK eigensolver
  Finished Cholesky decomposition
  | Time :     0.001 s
  Finished transformation to standard eigenproblem
  | Time :     0.001 s
  Finished solving standard eigenproblem
  | Time :     0.003 s
  Finished back-transformation of eigenvectors
  | Time :     0.000 s

  Obtaining occupation numbers and chemical potential using ELSI.
  | Chemical potential (Fermi level):    -7.32879804 eV
  What follows are estimated values for band gap, HOMO, LUMO, etc.
  | They are estimated on a discrete k-point grid and not necessarily exact.
  | For converged numbers, create a DOS and/or band structure plot on a denser k-grid.

  Highest occupied state (VBM) at    -10.05818446 eV (relative to internal zero)
  | Occupation number:      2.00000000
  | K-point:       3 at    0.000000    0.000000    0.400000 (in units of recip. lattice)

  Lowest unoccupied state (CBM) at    -7.24124550 eV (relative to internal zero)
  | Occupation number:      0.00000000
  | K-point:       1 at    0.000000    0.000000    0.000000 (in units of recip. lattice)

  ESTIMATED overall HOMO-LUMO gap:      2.81693896 eV between HOMO at k-point 3 and LUMO at k-point 1
  | This appears to be an indirect band gap.
  | Smallest direct gap :      3.16773020 eV for k_point 21 at    0.000000    0.000000    0.000000 (in units of recip. lattice)
  The gap value is above 0.2 eV. Unless you are using a very sparse k-point grid,
[...]
  |   Minimum:        7.596 MB (on task  0)
  |   Maximum:        7.723 MB (on task  1)
  |   Average:        7.676 MB
  | Peak value for overall tracked memory usage:
  |   Minimum:       24.357 MB (on task  1 after allocating gradient_basis_wave)
  |   Maximum:       25.461 MB (on task  7 after allocating gradient_basis_wave)
  |   Average:       24.777 MB
  | Largest tracked array allocation so far:
  |   Minimum:       10.551 MB (hamiltonian_shell on task  1)
  |   Maximum:       11.412 MB (hamiltonian_shell on task  7)
  |   Average:       10.914 MB
  Note:  These values currently only include a subset of arrays which are explicitly tracked.
  The "true" memory usage will be greater.
------------------------------------------------------------

------------------------------------------------------------
          Begin self-consistency iteration #   19

  Date     :  20200320, Time     :  114912.386
------------------------------------------------------------
  Evaluating new KS density using the density matrix
  Evaluating density matrix
  Time summed over all CPUs for getting density from density matrix: real work       58.146 s, elapsed       59.217 s
  Integration grid: deviation in total charge (<rho> - N_e) =   4.760636E-12
  Pulay mixing of updated and previous charge densities.
  Renormalizing the density to the exact electron count on the 3D integration grid.
  | Formal number of electrons (from input files) :      76.0000000000
  | Integrated number of electrons on 3D grid     :      75.9999999682
  | Charge integration error                      :      -0.0000000318
  | Normalization factor for density and gradient :       1.0000000004

  Evaluating partitioned Hartree potential by multipole expansion.
  | Original multipole sum: apparent total charge =   0.118389E-12
  | Sum of charges compensated after spline to logarithmic grids =   0.436545E-06
  | Analytical far-field extrapolation by fixed multipoles:
  | Hartree multipole sum: apparent total charge =   0.117553E-12
  Summing up the Hartree potential.
  Time summed over all CPUs for potential: real work       13.761 s, elapsed       14.184 s
  | RMS charge density error from multipole expansion :   0.125734E-01
  | Average real-space part of the electrostatic potential :      0.69247064 eV

  Integrating Hamiltonian matrix: batch-based integration.
  Time summed over all CPUs for integration: real work       31.094 s, elapsed       31.827 s

  Updating Kohn-Sham eigenvalues and eigenvectors using ELSI and the (modified) LAPACK eigensolver.
  Starting LAPACK eigensolver
  Finished Cholesky decomposition
  | Time :     0.001 s
  Finished transformation to standard eigenproblem
  | Time :     0.001 s
  Finished solving standard eigenproblem
  | Time :     0.004 s
  Finished back-transformation of eigenvectors
  | Time :     0.000 s

  Obtaining occupation numbers and chemical potential using ELSI.
  | Chemical potential (Fermi level):    -7.62883055 eV
  What follows are estimated values for band gap, HOMO, LUMO, etc.
  | They are estimated on a discrete k-point grid and not necessarily exact.
  | For converged numbers, create a DOS and/or band structure plot on a denser k-grid.

  Highest occupied state (VBM) at     -9.61449784 eV (relative to internal zero)
  | Occupation number:      2.00000000
  | K-point:      44 at    0.400000    0.600000    0.000000 (in units of recip. lattice)

  Lowest unoccupied state (CBM) at    -7.54125284 eV (relative to internal zero)
  | Occupation number:      0.00000000
  | K-point:       1 at    0.000000    0.000000    0.000000 (in units of recip. lattice)

  ESTIMATED overall HOMO-LUMO gap:      2.07324500 eV between HOMO at k-point 44 and LUMO at k-point 1
  | This appears to be an indirect band gap.
  | Smallest direct gap :      2.42673733 eV for k_point 21 at    0.000000    0.000000    0.000000 (in units of recip. lattice)
  The gap value is above 0.2 eV. Unless you are using a very sparse k-point grid,
  this system is most likely an insulator or a semiconductor.

  Total energy components:
  | Sum of eigenvalues            :       -1195.50393389 Ha      -32531.31721626 eV
  | XC energy correction          :        -118.69043733 Ha       -3229.73112676 eV
  | XC potential correction       :         153.46398522 Ha        4175.96750876 eV
  | Free-atom electrostatic energy:        -853.31406553 Ha      -23219.85713649 eV
  | Hartree energy correction     :           0.13760194 Ha           3.74433923 eV
  | Entropy correction            :          -0.00000000 Ha          -0.00000000 eV
  | ---------------------------
  | Total energy                  :       -2013.90684960 Ha      -54801.19363152 eV
  | Total energy, T -> 0          :       -2013.90684960 Ha      -54801.19363152 eV  <-- do not rely on this value for anything but (periodic) metals
  | Electronic free energy        :       -2013.90684960 Ha      -54801.19363152 eV

  Derived energy quantities:
  | Kinetic energy                :        2028.11254848 Ha       55187.75036586 eV
  | Electrostatic energy          :       -3923.32896074 Ha     -106759.21287063 eV
  | Energy correction for multipole
  | error in Hartree potential    :          -0.01047950 Ha          -0.28516174 eV
  | Sum of eigenvalues per atom                           :       -5421.88620271 eV
  | Total energy (T->0) per atom                          :       -9133.53227192 eV  <-- do not rely on this value for anything but (periodic) metals
  | Electronic free energy per atom                       :       -9133.53227192 eV

  Self-consistency convergence accuracy:
  | Change of charge density      :  0.6921E-06
  | Change of sum of eigenvalues  :  0.1043E-03 eV
  | Change of total energy        :  0.2128E-08 eV

  Preliminary charge convergence reached. Turning off preconditioner.

  Writing Kohn-Sham eigenvalues.
  K-point:       1 at    0.000000    0.000000    0.000000 (in units of recip. lattice)

  State    Occupation    Eigenvalue [Ha]    Eigenvalue [eV]
      1       2.00000        -180.099441        -4900.75513
      2       2.00000        -180.099441        -4900.75513
      3       2.00000         -19.893711         -541.33541
      4       2.00000         -19.893711         -541.33541
      5       2.00000         -18.882904         -513.82996
      6       2.00000         -18.882904         -513.82996
      7       2.00000         -18.882904         -513.82996
      8       2.00000         -18.882904         -513.82996
      9       2.00000         -16.481171         -448.47549
     10       2.00000         -16.481171         -448.47549
     11       2.00000         -16.480944         -448.46931
     12       2.00000         -16.480944         -448.46931
     13       2.00000         -16.480944         -448.46931
     14       2.00000         -16.480944         -448.46931
     15       2.00000          -2.426569          -66.03031
     16       2.00000          -2.424333          -65.96946
     17       2.00000          -1.562092          -42.50669
     18       2.00000          -1.553374          -42.26946
     19       2.00000          -1.553374          -42.26946
     20       2.00000          -1.550695          -42.19657
     21       2.00000          -1.550695          -42.19657
     22       2.00000          -1.547434          -42.10781
     23       2.00000          -1.003542          -27.30777
     24       2.00000          -0.965948          -26.28477
     25       2.00000          -0.960758          -26.14356
     26       2.00000          -0.948159          -25.80071
     27       2.00000          -0.499514          -13.59246
     28       2.00000          -0.495189          -13.47477
     29       2.00000          -0.495189          -13.47477
     30       2.00000          -0.479481          -13.04735
     31       2.00000          -0.429181          -11.67860
     32       2.00000          -0.429181          -11.67860
     33       2.00000          -0.428561          -11.66173
     34       2.00000          -0.382872          -10.41847
     35       2.00000          -0.382872          -10.41847
     36       2.00000          -0.382620          -10.41161
     37       2.00000          -0.370079          -10.07036
     38       2.00000          -0.370079          -10.07036
     39       0.00000          -0.277136           -7.54125
     40       0.00000          -0.250052           -6.80426
     41       0.00000          -0.208066           -5.66176
     42       0.00000          -0.208066           -5.66176
     43       0.00000          -0.206823           -5.62793
     44       0.00000          -0.206823           -5.62793
     45       0.00000          -0.169942           -4.62435
     46       0.00000          -0.159881           -4.35058
     47       0.00000          -0.158968           -4.32575
     48       0.00000          -0.121307           -3.30094
     49       0.00000          -0.074766           -2.03449
     50       0.00000           0.136891            3.72499
     51       0.00000           0.191656            5.21524
     52       0.00000           0.310475            8.44846
     53       0.00000           0.310475            8.44846
     54       0.00000           0.315242            8.57816
     55       0.00000           0.315242            8.57816
     56       0.00000           0.321483            8.74801
     57       0.00000           0.321861            8.75829
     58       0.00000           0.351322            9.55995
     59       0.00000           0.397016           10.80337
     60       0.00000           0.535263           14.56524
     61       0.00000           0.535263           14.56524

  What follows are estimated values for band gap, HOMO, LUMO, etc.
  | They are estimated on a discrete k-point grid and not necessarily exact.
  | For converged numbers, create a DOS and/or band structure plot on a denser k-grid.

  Highest occupied state (VBM) at     -9.61449784 eV (relative to internal zero)
  | Occupation number:      2.00000000
  | K-point:      44 at    0.400000    0.600000    0.000000 (in units of recip. lattice)

  Lowest unoccupied state (CBM) at    -7.54125284 eV (relative to internal zero)
  | Occupation number:      0.00000000
  | K-point:       1 at    0.000000    0.000000    0.000000 (in units of recip. lattice)

  ESTIMATED overall HOMO-LUMO gap:      2.07324500 eV between HOMO at k-point 44 and LUMO at k-point 1
  | This appears to be an indirect band gap.
  | Smallest direct gap :      2.42673733 eV for k_point 21 at    0.000000    0.000000    0.000000 (in units of recip. lattice)
  The gap value is above 0.2 eV. Unless you are using a very sparse k-point grid,
  this system is most likely an insulator or a semiconductor.

  Self-consistency cycle converged.

  End self-consistency iteration #    19       :  max(cpu_time)    wall_clock(cpu1)
  | Time for this iteration                    :        4.736 s           4.736 s
  | Charge density update                      :        2.485 s           2.484 s
  | Density mixing                             :        0.278 s           0.278 s
  | Hartree multipole update                   :        0.003 s           0.002 s
  | Hartree multipole summation                :        0.603 s           0.604 s
  | Integration                                :        1.339 s           1.339 s
  | Solution of K.-S. eqns.                    :        0.028 s           0.028 s
  | Total energy evaluation                    :        0.000 s           0.000 s

  Partial memory accounting:
  | Current value for overall tracked memory usage:
  |   Minimum:        7.596 MB (on task  0)
  |   Maximum:        7.723 MB (on task  1)
  |   Average:        7.676 MB
  | Peak value for overall tracked memory usage:
  |   Minimum:       24.357 MB (on task  1 after allocating gradient_basis_wave)
  |   Maximum:       25.461 MB (on task  7 after allocating gradient_basis_wave)
  |   Average:       24.777 MB
  | Largest tracked array allocation so far:
  |   Minimum:       10.551 MB (hamiltonian_shell on task  1)
  |   Maximum:       11.412 MB (hamiltonian_shell on task  7)
  |   Average:       10.914 MB
  Note:  These values currently only include a subset of arrays which are explicitly tracked.
  The "true" memory usage will be greater.
------------------------------------------------------------

  Energy and forces in a compact form:
  | Total energy uncorrected      :         -0.548011936315210E+05 eV
  | Total energy corrected        :         -0.548011936315210E+05 eV  <-- do not rely on this value for anything but (periodic) metals
  | Electronic free energy        :         -0.548011936315210E+05 eV

  ------------------------------------ 
  Start decomposition of the XC Energy 
  ------------------------------------ 
  X and C from original XC functional choice 
  Hartree-Fock Energy :          0.000000000 Ha              0.000000000 eV
  X Energy            :       -115.679090696 Ha          -3147.788215543 eV
  C Energy            :         -3.011346637 Ha            -81.942911212 eV
  Total XC Energy     :       -118.690437334 Ha          -3229.731126755 eV
  ------------------------------------ 
  LDA X and C from self-consistent density 
  X Energy LDA        :       -107.391194954 Ha          -2922.263097795 eV
  C Energy LDA        :         -5.873835169 Ha           -159.835187268 eV
  ------------------------------------ 
  End decomposition of the XC Energy 
  ------------------------------------ 

------------------------------------------------------------

------------------------------------------------------------------------------
  Final output of selected total energy values:

  The following output summarizes some interesting total energy values
  at the end of a run (AFTER all relaxation, molecular dynamics, etc.).

  | Total energy of the DFT / Hartree-Fock s.c.f. calculation      :         -54801.193631521 eV
  | Final zero-broadening corrected energy (caution - metals only) :         -54801.193631521 eV
  | For reference only, the value of 1 Hartree used in FHI-aims is :             27.211384500 eV
  | For reference only, the overall average (free atom contribution
  | + realspace contribution) of the electrostatic potential after
  | s.c.f. convergence is                                          :            -16.468357248 eV

  Before relying on these values, please be sure to understand exactly which
  total energy value is referred to by a given number. Different objects may
  all carry the same name 'total energy'. Definitions:

  Total energy of the DFT / Hartree-Fock s.c.f. calculation:
  | Note that this energy does not include ANY quantities calculated after the
  | s.c.f. cycle, in particular not ANY RPA, MP2, etc. many-body perturbation terms.

  Final zero-broadening corrected energy:
  | For metallic systems only, a broadening of the occupation numbers at the Fermi
  | level can be extrapolated back to zero broadening by an electron-gas inspired
  | formula. For all systems that are not real metals, this value can be
  | meaningless and should be avoided.

------------------------------------------------------------------------------
  Methods described in the following list of references were used in this FHI-aims run.
  If you publish the results, please make sure to cite these reference if they apply.
  FHI-aims is an academic code, and for our developers (often, Ph.D. students
  and postdocs), scientific credit in the community is essential.
  Thank you for helping us!

  For any use of FHI-aims, please cite:

    Volker Blum, Ralf Gehrke, Felix Hanke, Paula Havu, Ville Havu,
    Xinguo Ren, Karsten Reuter, and Matthias Scheffler
    'Ab initio molecular simulations with numeric atom-centered orbitals'
    Computer Physics Communications 180, 2175-2196 (2009)
    http://dx.doi.org/10.1016/j.cpc.2009.06.022


  The provided symmetry information was generated with SPGlib:

    Atsushi Togo, Yusuke Seto, Dimitar Pashov
    SPGlib 1.7.3 obtained from http://spglib.sourceforge.net
    Copyright (C) 2008 Atsushi Togo


  The ELSI infrastructure was used in your run to solve the Kohn-Sham electronic structure.
  Please check out http://elsi-interchange.org to learn more.
  If scalability is important for your project, please acknowledge ELSI by citing:

    V. W-z. Yu, F. Corsetti, A. Garcia, W. P. Huhn, M. Jacquelin, W. Jia,
    B. Lange, L. Lin, J. Lu, W. Mi, A. Seifitokaldani, A. Vazquez-Mayagoitia,
    C. Yang, H. Yang, and V. Blum
    'ELSI: A unified software interface for Kohn-Sham electronic structure solvers'
    Computer Physics Communications 222, 267-285 (2018).
    http://dx.doi.org/10.1016/j.cpc.2017.09.007


  For the real-space grid partitioning and parallelization used in this calculation, please cite:

    Ville Havu, Volker Blum, Paula Havu, and Matthias Scheffler,
    'Efficient O(N) integration for all-electron electronic structure calculation'
    'using numerically tabulated basis functions'
    Journal of Computational Physics 228, 8367-8379 (2009).
    http://dx.doi.org/10.1016/j.jcp.2009.08.008

  Of course, there are many other important community references, e.g., those cited in the
  above references. Our list is limited to references that describe implementations in the
  FHI-aims code. The reason is purely practical (length of this list) - please credit others as well.

------------------------------------------------------------
          Leaving FHI-aims.
          Date     :  20200320, Time     :  114917.138

          Computational steps:
          | Number of self-consistency cycles          :           19
          | Number of SCF (re)initializations          :            1

          Detailed time accounting                     :  max(cpu_time)    wall_clock(cpu1)
          | Total time                                 :       94.875 s          95.168 s
          | Preparation time                           :        0.338 s           0.389 s
          | Boundary condition initalization           :        0.102 s           0.104 s
          | Grid partitioning                          :        0.186 s           0.187 s
          | Preloading free-atom quantities on grid    :        0.020 s           0.020 s
          | Free-atom superposition energy             :        0.073 s           0.073 s
          | Total time for integrations                :       27.966 s          27.979 s
          | Total time for solution of K.-S. equations :        0.597 s           0.623 s
          | Total time for density update              :       47.468 s          47.466 s
          | Total time for mixing & preconditioning    :        5.319 s           5.323 s
          | Total time for Hartree multipole update    :        0.046 s           0.046 s
          | Total time for Hartree multipole sum       :       11.414 s          11.415 s
          | Total time for total energy evaluation     :        0.004 s           0.004 s
          | Total time for scaled ZORA corrections     :        0.000 s           0.000 s

          Partial memory accounting:
          | Residual value for overall tracked memory usage across tasks:     0.000000 MB (should be 0.000000 MB)
          | Peak values for overall tracked memory usage:
          |   Minimum:       24.357 MB (on task  1 after allocating gradient_basis_wave)
          |   Maximum:       25.461 MB (on task  7 after allocating gradient_basis_wave)
          |   Average:       24.777 MB
          | Largest tracked array allocation:
          |   Minimum:       10.551 MB (hamiltonian_shell on task  1)
          |   Maximum:       11.412 MB (hamiltonian_shell on task  7)
          |   Average:       10.914 MB
          Note:  These values currently only include a subset of arrays which are explicitly tracked.
          The "true" memory usage will be greater.

          Have a nice day.
------------------------------------------------------------
