------------------------------------------------------------
          Invoking FHI-aims ...

          When using FHI-aims, please cite the following reference:

            Volker Blum, Ralf Gehrke, Felix Hanke, Paula Havu,
            Ville Havu, Xinguo Ren, Karsten Reuter, and Matthias Scheffler,
            'Ab Initio Molecular Simulations with Numeric Atom-Centered Orbitals',
            Computer Physics Communications 180, 2175-2196 (2009)

          In addition, many other developments in FHI-aims are likely important for
          your particular application. A partial list of references is given at the end of
          this file. Thank you for giving credit to the authors of these developments.

          For any questions about FHI-aims, please visit our slack channel at

            https://fhi-aims.slack.com

          and our main development and support site at

            https://aims-git.rz-berlin.mpg.de .

          The latter site, in particular, has a wiki to collect information, as well
          as an issue tracker to log discussions, suggest improvements, and report issues
          or bugs. https://aims-git.rz-berlin.mpg.de is also the main development site
          of the project and all new and updated code versions can be obtained there.
          Please send an email to aims-coordinators@fhi-berlin.mpg.de and we will add
          you to these sites. They are for you and everyone is welcome there.

------------------------------------------------------------



  Date     :  20201111, Time     :  143205.564
  Time zero on CPU 1             :   0.140625000000000E+00  s.
  Internal wall clock time zero  :           374337125.564  s.

  FHI-aims created a unique identifier for this run for later identification
  aims_uuid : 8D27F7E1-CD23-45CF-A17D-5082B7DDDFD6

  Build configuration of the current instance of FHI-aims
  -------------------------------------------------------
  FHI-aims version      : 201103
  Commit number         : faf196098
  CMake host system     : Linux-4.4.0-19041-Microsoft
  CMake version         : 3.18.4
  Fortran compiler      : /home/roman/miniconda3/envs/aims-env/bin/mpifort (GNU) version 7.5.0
  Fortran compiler flags: -O2 -ffree-line-length-none
  C compiler            : /home/roman/miniconda3/envs/aims-env/bin/gcc (GNU) version 7.5.0
  C compiler flags      : -O2 -funroll-loops -std=gnu99
  Using MPI
  Using LibXC
  Using i-PI
  Using RLSY
  Linking against: /home/roman/miniconda3/envs/aims-env/lib/libmkl_intel_lp64.so
                   /home/roman/miniconda3/envs/aims-env/lib/libmkl_sequential.so
                   /home/roman/miniconda3/envs/aims-env/lib/libmkl_core.so

  Using        2 parallel tasks.
  Task        0 on host DESKTOP-A6RSI3L reporting.
  Task        1 on host DESKTOP-A6RSI3L reporting.

  Performing system and environment tests:
  *** Environment variable OMP_NUM_THREADS is not set
  *** For performance reasons you might want to set it to 1
  | Checking for ScaLAPACK...
  | No ScaLAPACK compiled in.

  Obtaining array dimensions for all initial allocations:
  
  -----------------------------------------------------------------------
  Parsing control.in (first pass over file, find array dimensions only).
  The contents of control.in will be repeated verbatim below
  unless switched off by setting 'verbatim_writeout .false.' .
  in the first line of control.in .
  -----------------------------------------------------------------------
  
  #===============================================================================
  # FHI-aims file: ./control.in
  # Created using the Atomic Simulation Environment (ASE)
  # Tue Nov 10 17:37:33 2020
  #===============================================================================
  xc                                 pbe
  include_spin_orbit
  check_stacksize .false.
  # Common choices of dispersion methods:
   	 vdw_correction_hirshfeld
  # 	 many_body_dispersion
  # 	 many_body_dispersion_nl 	 beta=0.81
  spin                               collinear
  default_initial_moment 2
  k_grid                             6 6 6
  relativistic                       atomic_zora scalar
  ### SCF settings
  adjust_scf 	 always 	 3
  # frozen_core_scf 	 .true.
  charge_mix_param  0.02
  occupation_type 	 gaussian 	 0.1
  # sc_accuracy_eev   1E-3 	 	 # sum of eigenvalues convergence
  # sc_accuracy_etot  1E-6 	 	 # total energy convergence
  sc_accuracy_rho   1E-3 	 	 # electron density convergence
  # elsi_restart 	 read_and_write 	 1000
  ### band structure section
  ## Brillouin Zone section Nr. 1
  output band 0.000000 0.000000 0.000000 	 0.500000 -0.500000 0.500000 	 31 	 G H
  output band 0.500000 -0.500000 0.500000 	 0.000000 0.000000 0.500000 	 31 	 H N
  output band 0.000000 0.000000 0.500000 	 0.000000 0.000000 0.000000 	 31 	 N G
  output band 0.000000 0.000000 0.000000 	 0.250000 0.250000 0.250000 	 31 	 G P
  output band 0.250000 0.250000 0.250000 	 0.500000 -0.500000 0.500000 	 31 	 P H
  ## Brillouin Zone section Nr. 2
  output band 0.250000 0.250000 0.250000 	 0.000000 0.000000 0.500000 	 31 	 P N
  ### band structure section
  ## Brillouin Zone section Nr. 1
  output band_mulliken 0.000000 0.000000 0.000000 	 0.500000 -0.500000 0.500000 	 31 	 G H
  output band_mulliken 0.500000 -0.500000 0.500000 	 0.000000 0.000000 0.500000 	 31 	 H N
  output band_mulliken 0.000000 0.000000 0.500000 	 0.000000 0.000000 0.000000 	 31 	 N G
  output band_mulliken 0.000000 0.000000 0.000000 	 0.250000 0.250000 0.250000 	 31 	 G P
  output band_mulliken 0.250000 0.250000 0.250000 	 0.500000 -0.500000 0.500000 	 31 	 P H
  ## Brillouin Zone section Nr. 2
  output band_mulliken 0.250000 0.250000 0.250000 	 0.000000 0.000000 0.500000 	 31 	 P N
  ### DOS section
  output atom_proj_dos  -10 0 300 0.05       # Estart Eend n_points broadening
  output species_proj_dos  -10 0 300 0.05       # Estart Eend n_points broadening
  output dos  -10 0 300 0.05       # Estart Eend n_points broadening
  #output atom_proj_dos_tetrahedron  -10 0 300 0.05       # Estart Eend n_points broadening
  #output species_proj_dos_tetrahedron  -10 0 300 0.05       # Estart Eend n_points broadening
  #output dos_tetrahedron  -10 0 300 0.05       # Estart Eend n_points broadening
  #===============================================================================
  
  ################################################################################
  #
  #  FHI-aims code project
  #  VB, Fritz-Haber Institut, 2009
  #
  #  Suggested "light" defaults for Fe atom (to be pasted into control.in file)
  #  Be sure to double-check any results obtained with these settings for post-processing,
  #  e.g., with the "tight" defaults and larger basis sets.
  #
  ################################################################################
    species        Fe
  #     global species definitions
      nucleus             26
      mass                55.845
  #
      l_hartree           4
  #
      cut_pot             3.5          1.5  1.0
      basis_dep_cutoff    1e-4
  #
      radial_base         51 5.0
      radial_multiplier   1
      angular_grids       specified
        division   0.4337   50
        division   0.8154  110
        division   1.1046  194
        division   1.3713  302
  #      division   1.5424  434
  #      division   1.7365  590
  #      division   1.9587  770
  #      division   1.9990  974
  #      division   2.4139 1202
  #      outer_grid  1202
        outer_grid  302
  ################################################################################
  #
  #  Definition of "minimal" basis
  #
  ################################################################################
  #     valence basis states
      valence      4  s   2.
      valence      3  p   6.
      valence      3  d   6.
  #     ion occupancy
      ion_occ      4  s   1.
      ion_occ      3  p   6.
      ion_occ      3  d   5.
  ################################################################################
  #
  #  Suggested additional basis functions. For production calculations,
  #  uncomment them one after another (the most important basis functions are
  #  listed first).
  #
  #  Constructed for dimers: 1.45 A, 1.725 A, 2.25 A, 3.00 A, 4.00 A
  #
  ################################################################################
  #  "First tier" - improvements: -300.53 meV to -10.50 meV
       hydro 4 f 9.4
       hydro 2 p 2.2
       hydro 5 g 12.4
       hydro 3 d 3.1
       ionic 4 s auto
  #  "Second tier" - improvements: -16.31 meV to -0.65 meV
  #     hydro 3 d 6.2
  #     hydro 6 h 19.2
  #     hydro 4 f 15.2
  #     hydro 4 f 6.6
  #     hydro 3 p 3
  #     hydro 5 g 13.2
  #     hydro 1 s 0.65
  #  "Third tier" - improvements: -1.60 meV to -0.10 meV
  #     hydro 4 d 7.8
  #     hydro 4 p 19.6
  #     hydro 4 d 10.4
  #     ionic 4 p auto
  #     hydro 6 h 17.6
  #     hydro 5 f 27.2
  #     hydro 4 s 4.8
  #  "Fourth tier": improvements -0.13 meV and below
  #     hydro 5 f 12
  #     hydro 5 g 10.4
  #     hydro 5 p 8.4
  #     hydro 4 d 14.8
  #     hydro 2 s 1.9
  
  -----------------------------------------------------------------------
  Completed first pass over input file control.in .
  -----------------------------------------------------------------------
  
  
  -----------------------------------------------------------------------
  Parsing geometry.in (first pass over file, find array dimensions only).
  The contents of geometry.in will be repeated verbatim below
  unless switched off by setting 'verbatim_writeout .false.' .
  in the first line of geometry.in .
  -----------------------------------------------------------------------
  
  #=======================================================
  # FHI-aims file: ./geometry.in
  # Created using the Atomic Simulation Environment (ASE)
  # Tue Nov 10 17:37:33 2020
  #=======================================================
  lattice_vector 2.4595568999999999 0.0000000000000000 0.0000000000000000
  lattice_vector -0.8198522998182515 2.3188924836698086 0.0000000000000000
  lattice_vector -0.8198522998182515 -1.1594462414493576 2.0082197997254414
  atom_frac 0.0000000000000000 0.0000000000000000 0.0000000000000000 Fe
  
  -----------------------------------------------------------------------
  Completed first pass over input file geometry.in .
  -----------------------------------------------------------------------
  

  Basic array size parameters:
  | Number of species                 :        1
  | Number of atoms                   :        1
  | Number of lattice vectors         :        3
  | Max. basis fn. angular momentum   :        4
  | Max. atomic/ionic basis occupied n:        4
  | Max. number of basis fn. types    :        3
  | Max. radial fns per species/type  :        7
  | Max. logarithmic grid size        :     1397
  | Max. radial integration grid size :       51
  | Max. angular integration grid size:      302
  | Max. angular grid division number :        8
  | Radial grid for Hartree potential :     1397
  | Number of spin channels           :        2

------------------------------------------------------------
          Reading file control.in.
------------------------------------------------------------
  XC: Using PBE gradient-corrected functionals.
  Calculating non-self-consistent second-variational spin-orbit coupling after scf-cycle
  Spin treatment: Spin density functional theory - collinear spins.
  You have request a SOC run with spin-polarization.
  symmetry_reduced_k_grid will be turned off.
  Initial spin moment per atom:   2.0000
  Found k-point grid:         6         6         6
  Scalar relativistic treatment of kinetic energy: on-site free-atom approximation to ZORA.
  S.C.F. convergence parameters will be adjusted in iteration number     3 of each new s.c.f. cycle.
  Charge density mixing - mixing parameter:     0.0200
  Occupation type: Gaussian broadening, width =   0.100000E+00 eV.
  Convergence accuracy of self-consistent charge density:  0.1000E-02

  Plot band    1
  | begin  0.000000  0.000000  0.000000
  | end    0.500000 -0.500000  0.500000
  | number of points:   31

  Plot band    2
  | begin  0.500000 -0.500000  0.500000
  | end    0.000000  0.000000  0.500000
  | number of points:   31

  Plot band    3
  | begin  0.000000  0.000000  0.500000
  | end    0.000000  0.000000  0.000000
  | number of points:   31

  Plot band    4
  | begin  0.000000  0.000000  0.000000
  | end    0.250000  0.250000  0.250000
  | number of points:   31

  Plot band    5
  | begin  0.250000  0.250000  0.250000
  | end    0.500000 -0.500000  0.500000
  | number of points:   31

  Plot band    6
  | begin  0.250000  0.250000  0.250000
  | end    0.000000  0.000000  0.500000
  | number of points:   31
  Mulliken analysis of all k points in band will be performed

  Plot band    7
  | begin  0.000000  0.000000  0.000000
  | end    0.500000 -0.500000  0.500000
  | number of points:   31
  Mulliken analysis of all k points in band will be performed

  Plot band    8
  | begin  0.500000 -0.500000  0.500000
  | end    0.000000  0.000000  0.500000
  | number of points:   31
  Mulliken analysis of all k points in band will be performed

  Plot band    9
  | begin  0.000000  0.000000  0.500000
  | end    0.000000  0.000000  0.000000
  | number of points:   31
  Mulliken analysis of all k points in band will be performed

  Plot band   10
  | begin  0.000000  0.000000  0.000000
  | end    0.250000  0.250000  0.250000
  | number of points:   31
  Mulliken analysis of all k points in band will be performed

  Plot band   11
  | begin  0.250000  0.250000  0.250000
  | end    0.500000 -0.500000  0.500000
  | number of points:   31
  Mulliken analysis of all k points in band will be performed

  Plot band   12
  | begin  0.250000  0.250000  0.250000
  | end    0.000000  0.000000  0.500000
  | number of points:   31
  Calculating atom-projected density of states with
  | energy interval :-10.000000  0.000000
  | points & broadening :   300  0.050000
  Calculating angular-momentum projected DOS with 
  | energy interval :-10.000000  0.000000
  | points & broadening :   300  0.050000
  Calculating density of states with
  | energy interval :-10.000000  0.000000
  | points & broadening :   300  0.050000

  Reading configuration options for species Fe                  .
  | Found nuclear charge :  26.0000
  | Found atomic mass :    55.844999999999999      amu
  | Found l_max for Hartree potential  :   4
  | Found cutoff potl. onset [A], width [A], scale factor :    3.50000    1.50000    1.00000
  | Threshold for basis-dependent cutoff potential is   0.100000E-03
  | Found data for basic radial integration grid :    51 points, outermost radius =    5.000 A
  | Found multiplier for basic radial grid :   1
  | Found angular grid specification: user-specified.
  | Specified grid contains     5 separate shells.
  | Check grid settings after all constraints further below.
  | Found free-atom valence shell :  4 s   2.000
  | Found free-atom valence shell :  3 p   6.000
  | Found free-atom valence shell :  3 d   6.000
  | Found free-ion valence shell :  4 s   1.000
  | Found free-ion valence shell :  3 p   6.000
  | Found free-ion valence shell :  3 d   5.000
  | Found hydrogenic basis function :  4 f   9.400
  | Found hydrogenic basis function :  2 p   2.200
  | Found hydrogenic basis function :  5 g  12.400
  | Found hydrogenic basis function :  3 d   3.100
  | Found ionic basis function :  4 s , default cutoff radius.
  Species Fe                  : Missing cutoff potential type.
  Defaulting to exp(1/x)/(1-x)^2 type cutoff potential.
  Species Fe: No 'logarithmic' tag. Using default grid for free atom:
  | Default logarithmic grid data [bohr] : 0.1000E-03 0.1000E+03 0.1012E+01
  | Will include ionic basis functions of  2.0-fold positive Fe                   ion.
  Species Fe: On-site basis accuracy parameter (for Gram-Schmidt orthonormalisation) not specified.
  Using default value basis_acc =  0.1000000E-03.
  Species Fe                  : Using default innermost maximum threshold i_radial=  2 for radial functions.
  Species Fe                  : Default cutoff onset for free atom density etc. : 0.35000000E+01 AA.
  Species Fe                  : Basic radial grid will be enhanced according to radial_multiplier =   1, to contain    51 grid points.

  Finished reading input file 'control.in'.

------------------------------------------------------------


------------------------------------------------------------
          Reading geometry description geometry.in.
------------------------------------------------------------
  | The smallest distance between any two atoms is         2.45955690 AA.
  | The first atom of this pair is atom number                      1 .
  | The second atom of this pair is atom number                     1 .
  | Wigner-Seitz cell of the first atom image           0     1     0 .
  | (The Wigner-Seitz cell of the second atom is 0 0 0  by definition.)

  Symmetry information by spglib:
  | Precision set to  0.1E-04
  | Number of Operations  : 48
  | Space group           : 229
  | International         : Im-3m
  | Schoenflies           : Oh^9
  Input structure read successfully.
  The structure contains        1 atoms,  and a total of         26.000 electrons.

  Input geometry:
  | Unit cell:
  |        2.45955690        0.00000000        0.00000000
  |       -0.81985230        2.31889248        0.00000000
  |       -0.81985230       -1.15944624        2.00821980
  | Atomic structure:
  |       Atom                x [A]            y [A]            z [A]
  |    1: Species Fe            0.00000000        0.00000000        0.00000000

  Lattice parameters for 3D lattice (in Angstroms) :     2.459557    2.459557    2.459557
  Angle(s) between unit vectors (in degrees)       :   109.471221  109.471221  109.471221


  Quantities derived from the lattice vectors:
  | Reciprocal lattice vector 1:  2.554601  0.903188  1.564367
  | Reciprocal lattice vector 2:  0.000000  2.709563  1.564367
  | Reciprocal lattice vector 3:  0.000000  0.000000  3.128734
  | Unit cell volume                               :   0.114538E+02  A^3

  Fractional coordinates:
                         L1                L2                L3
       atom_frac         0.00000000        0.00000000        0.00000000  Fe

  Initial moments and charges:
  |  Atom   Moment         Charge        Species
  |     1   0.200000E+01   0.000000E+00   Fe


  Finished reading input file 'control.in'.


------------------------------------------------------------
          Reading geometry description geometry.in.
------------------------------------------------------------

  Consistency checks for the contents of control.in are next.

  MPI_IN_PLACE appears to work with this MPI implementation.
  | Keeping use_mpi_in_place .true. (see manual).
  Target number of points in a grid batch is not set. Defaulting to  100
  Method for grid partitioning is not set. Defaulting to parallel hash+maxmin partitioning.
  Batch size limit is not set. Defaulting to    200
  By default, will store active basis functions for each batch.
  If in need of memory, prune_basis_once .false. can be used to disable this option.
  communication_type for Hartree potential was not specified.
  Defaulting to calc_hartree .
  Defaulting to Pulay charge density mixer.
  Pulay mixer: Number of relevant iterations not set.
  Defaulting to    8 iterations.
  Pulay mixer: Number of initial linear mixing iterations not set.
  Defaulting to    0 iterations.
  Work space size for distributed Hartree potential not set.
  Defaulting to   0.200000E+03 MB.
  Mixing parameter for spin density mixing has not been set.
  Using charge_mix_param as default:     0.0200.
  Algorithm-dependent basis array size parameters:
  | n_max_pulay                         :        8
  Maximum number of self-consistency iterations not provided.
  Presetting  1000 iterations.
  Presetting      1001 iterations before the initial mixing cycle
  is restarted anyway using the sc_init_iter criterion / keyword.
  Presetting a factor      1.000 between actual scf density residual
  and density convergence criterion sc_accuracy_rho below which sc_init_iter
  takes no effect.
  Calculation of forces was not defined in control.in. No forces will be calculated.
  Geometry relaxation not requested: no relaxation will be performed.
  No accuracy limit for integral partition fn. given. Defaulting to  0.1000E-14.
  No threshold value for u(r) in integrations given. Defaulting to  0.1000E-05.
  No accuracy for occupation numbers given. Defaulting to  0.1000E-12.
  No threshold value for occupation numbers given. Defaulting to  0.0000E+00.
  No accuracy for fermi level given. Defaulting to  0.1000E-19.
  Maximum # of iterations to find E_F not set. Defaulting to  200.
  Preferred method for the eigenvalue solver ('KS_method') not specified in 'control.in'.
  Defaulting to serial version, LAPACK (via ELSI), since more k-points than CPUs available.
  Will not use alltoall communication since running on < 1024 CPUs.
  Threshold for basis singularities not set.
  Default threshold for basis singularities:  0.1000E-04
  partition_type (choice of integration weights) for integrals was not specified.
  | Using a version of the partition function of Stratmann and coworkers ('stratmann_sparse').
  | At each grid point, the set of atoms used to build the partition table is smoothly restricted to
  | only those atoms whose free-atom density would be non-zero at that grid point.
  Partitioning for Hartree potential was not defined. Using partition_type for integrals.
  | Adjusted default value of keyword multip_moments_threshold to:       0.10000000E-11
  | This value may affect high angular momentum components of the Hartree potential in periodic systems.
  Angular momentum expansion for Kerker preconditioner not set explicitly.
  | Using default value of   0
  No explicit requirement for turning off preconditioner.
  | By default, it will be turned off when the charge convergence reaches
  | sc_accuracy_rho  =   0.100000E-02
  No special mixing parameter while Kerker preconditioner is on.
  Using default: charge_mix_param =     0.0200.
  No q(lm)/r^(l+1) cutoff set for long-range Hartree potential.
  | Using default value of  0.100000E-09 .
  | Verify using the multipole_threshold keyword.
  Defaulting to new monopole extrapolation.
  Density update method: automatic selection selected.
  Using density matrix based charge density update.
  Using density matrix based charge density update.
  Using packed matrix style: index .
  Defaulting to use full k-point grid (no symmetry reduction).
  Charge integration errors on the 3D integration grid will be compensated
  by explicit normalization and distribution of residual charges.
  Use the "compensate_multipole_errors" flag to change this behaviour.
  Using the following vdw_convergence_threshold for supercell sums
  over the Tkatchenko-Scheffler correction:  0.100000E-05 eV.
  Set 'collect_eigenvectors' to be '.true.' for all serial calculations. This is mandatory.
  Set 'collect_eigenvectors' to be '.true.' for KS_method lapack_fast and serial.

  Consistency checks for the contents of geometry.in are next.


  Range separation radius for Ewald summation (hartree_convergence_parameter):      3.14367473 bohr.
  Number of empty states per atom not set in control.in - providing a guess from actual geometry.
  | Total number of empty states used during s.c.f. cycle:        6
  If you use a very high smearing, use empty_states (per atom!) in control.in to increase this value.

  Structure-dependent array size parameters: 
  | Number of distinct atom types in initial rho :        1
  | Maximum number of distinct radial functions  :       12
  | Maximum number of basis functions            :       40
  | Number of Kohn-Sham states (occupied + empty):       19
------------------------------------------------------------

------------------------------------------------------------
          Preparing all fixed parts of the calculation.
------------------------------------------------------------
  Determining machine precision:
     2.2250738585072014E-308
  Setting up grids for atomic and cluster calculations.

  Creating wave function, potential, and density for free atoms.

  Species: Fe

  List of occupied orbitals and eigenvalues:
    n    l              occ      energy [Ha]    energy [eV]
    1    0           2.0000      -259.347078     -7057.1931
    2    0           2.0000       -30.151288      -820.4583
    3    0           2.0000        -3.446299       -93.7786
    4    0           2.0000        -0.186616        -5.0781
    2    1           6.0000       -25.685596      -698.9406
    3    1           6.0000        -2.197354       -59.7930
    3    2           6.0000        -0.267356        -7.2751

  Spin-polarized or charged system:
  Charge density initialized according to selected moments and charges.

  Creating spin-polarized density from free atoms.

  Species: Fe
  Charge:   0.000000
  Moment:   2.000000

  List of occupied orbitals and eigenvalues:
    n    l      energy [Ha]    energy [eV]    occupation
  Spin-up
    1    0      -259.341241     -7057.0342     1.00000000
    2    0       -30.162043      -820.7510     1.00000000
    3    0        -3.480163       -94.7000     1.00000000
    4    0        -0.193155        -5.2560     1.00000000
    2    1       -25.692256      -699.1219     3.00000000
    3    1        -2.230590       -60.6974     3.00000000
    3    2        -0.297071        -8.0837     4.00000000
  Spin-down
    1    0      -259.341357     -7057.0374     1.00000000
    2    0       -30.127563      -819.8127     1.00000000
    3    0        -3.401374       -92.5561     1.00000000
    4    0        -0.178982        -4.8703     1.00000000
    2    1       -25.666133      -698.4110     3.00000000
    3    1        -2.153496       -58.5996     3.00000000
    3    2        -0.229218        -6.2374     2.00000000


  Adding cutoff potential to free-atom effective potential.
  Creating fixed part of basis set: Ionic, confined, hydrogenic.

  Fe                   ion:

  List of free ionic orbitals and eigenvalues:
    n    l      energy [Ha]    energy [eV]
    1    0      -260.321188     -7083.6999
    2    0       -31.136355      -847.2633
    3    0        -4.393974      -119.5661
    4    0        -0.821894       -22.3649
    2    1       -26.668999      -725.7004
    3    1        -3.137384       -85.3726
    3    2        -1.170461       -31.8499


  List of ionic basis orbitals and eigenvalues:
    n    l      energy [Ha]    energy [eV]    outer radius [A]
    4    0        -0.821823       -22.3629       4.554938


  Fe                   hydrogenic:

  List of hydrogenic basis orbitals: 
    n    l      effective z      eigenvalue [eV]  inner max. [A]     outer max. [A]     outer radius [A]   
    4    3         9.400000       -75.1370           0.896093           0.896093           3.791786
    2    1         2.200000       -16.4552           0.964292           0.964292           4.554938
    5    4        12.400000       -83.6801           1.063365           1.063365           4.030789
    3    2         3.100000       -14.4291           1.515830           1.515830           4.610964

  Creating atomic-like basis functions for current effective potential.

  Species Fe                  :

  List of atomic basis orbitals and eigenvalues:
    n    l      energy [Ha]    energy [eV]    outer radius [A]
    1    0      -259.347078     -7057.1931       0.409790
    2    0       -30.151288      -820.4583       1.216422
    3    0        -3.446299       -93.7786       3.438507
    4    0        -0.186616        -5.0781       4.610964
    2    1       -25.685596      -698.9406       1.277383
    3    1        -2.197354       -59.7930       3.981813
    3    2        -0.267356        -7.2751       4.499593

  Assembling full basis from fixed parts.
  | Species Fe :   atomic orbital   1 s accepted.
  | Species Fe :   atomic orbital   2 s accepted.
  | Species Fe :   atomic orbital   3 s accepted.
  | Species Fe :    ionic orbital   4 s accepted.
  | Species Fe :   atomic orbital   4 s accepted.
  | Species Fe :   atomic orbital   2 p accepted.
  | Species Fe :   atomic orbital   3 p accepted.
  | Species Fe :    hydro orbital   2 p accepted.
  | Species Fe :   atomic orbital   3 d accepted.
  | Species Fe :    hydro orbital   3 d accepted.
  | Species Fe :    hydro orbital   4 f accepted.
  | Species Fe :    hydro orbital   5 g accepted.

  Basis size parameters after reduction:
  | Total number of radial functions:       12
  | Total number of basis functions :       40

  Per-task memory consumption for arrays in subroutine allocate_ext:
  |           4.293172MB.
  Testing on-site integration grid accuracy.
  |  Species  Function  <phi|h_atom|phi> (log., in eV)  <phi|h_atom|phi> (rad., in eV)
           1        1              -7057.1930710306              -7057.1872777124
           1        2               -820.4582952878               -820.4582331439
           1        3                -93.7785623021                -93.7785610589
           1        4                 -4.2201457338                 -4.2209190008
           1        5                  6.4834568061                  6.3497174940 ***
           1        6               -698.9406259938               -698.9406257532
           1        7                -59.7930400084                -59.7930399016
           1        8                  2.2031040148                  2.1993518317
           1        9                 -7.2752599110                 -7.2754441096
           1       10                  7.3532119403                  7.3196728658 ***
           1       11                 40.5776732000                 40.5777100294
           1       12                 61.2252577499                 61.2251765791
 * Note: Onsite integrals marked "***" above are less accurate than
 * onsite_accuracy_threshold =    0.03000 eV. Usually, this is harmless.
 * When in doubt, tighten the "radial" and/or "radial_multiplier" flags to check.

  Preparing densities etc. for the partition functions (integrals / Hartree potential).

  Preparations completed.
  max(cpu_time)          :      0.766 s.
  Wall clock time (cpu1) :      0.814 s.
------------------------------------------------------------

------------------------------------------------------------
          Begin self-consistency loop: Initialization.

          Date     :  20201111, Time     :  143206.428
------------------------------------------------------------

  Initializing index lists of integration centers etc. from given atomic structure:
  Mapping all atomic coordinates to central unit cell.

  Initializing the k-points
  | Number of k-points                             :       216
  The eigenvectors in the calculations are COMPLEX.
  | K-points in task   0:       108
  | K-points in task   1:       108
  | Number of basis functions in the Hamiltonian integrals :      3074
  | Number of basis functions in a single unit cell        :        40
  | Number of centers in hartree potential         :       749
  | Number of centers in hartree multipole         :       459
  | Number of centers in electron density summation:       331
  | Number of centers in basis integrals           :       331
  | Number of centers in integrals                 :       125
  | Number of centers in hamiltonian               :       331
  | Consuming       1120 KiB for k_phase.
  | Number of super-cells (origin) [n_cells]                     :        3375
  | Number of super-cells (after PM_index) [n_cells]             :         332
  | Number of super-cells in hamiltonian [n_cells_in_hamiltonian]:         332
  | Size of matrix packed + index [n_hamiltonian_matrix_size] :      166099
  | Estimated reciprocal-space cutoff momentum G_max:         2.99975873 bohr^-1 .
  | Reciprocal lattice points for long-range Hartree potential:      42
  Partitioning the integration grid into batches with parallel hashing+maxmin method.
  | Number of batches:      125
  | Maximal batch size:     107
  | Minimal batch size:      50
  | Average batch size:      57.072
  | Standard deviation of batch sizes:       8.240

  Integration load balanced across     2 MPI tasks.
  Work distribution over tasks is as follows:
  Task     0 has       3540 integration points.
  Task     1 has       3594 integration points.
  Initializing partition tables, free-atom densities, potentials, etc. across the integration grid (initialize_grid_storage).
  | initialize_grid_storage: Actual outermost partition radius vs. multipole_radius_free
  | (-- VB: in principle, multipole_radius_free should be larger, hence this output)
  | Species        1: Confinement radius =              4.999999999999999 AA, multipole_radius_free =              5.022921912105459 AA.
  | Species        1: outer_partition_radius set to              5.022921912105459 AA .
  | The sparse table of interatomic distances needs        627.22 kbyte instead of       876.49 kbyte of memory.
  | Net number of integration points:     7134
  | of which are non-zero points    :     5820
  | Numerical average free-atom electrostatic potential    :    -27.48706806 eV
  Renormalizing the initial density to the exact electron count on the 3D integration grid.
  | Initial density: Formal number of electrons (from input files) :      26.0000000000
  | Integrated number of electrons on 3D grid     :      25.9999309508
  | Charge integration error                      :      -0.0000690492
  | Normalization factor for density and gradient :       1.0000026557
  Renormalizing the free-atom superposition density to the exact electron count on the 3D integration grid.
  | Formal number of electrons (from input files) :      26.0000000000
  | Integrated number of electrons on 3D grid     :      25.9999308812
  | Charge integration error                      :      -0.0000691188
  | Normalization factor for density and gradient :       1.0000026584
  Obtaining max. number of non-zero basis functions in each batch (get_n_compute_maxes).
  | Maximal number of non-zero basis functions:     1371 in task     0
  | Maximal number of non-zero basis functions:     1390 in task     1
  Allocating        2.505 MB for KS_eigenvector_complex
  Integrating Hamiltonian matrix: batch-based integration.
  Time summed over all CPUs for integration: real work        6.915 s, elapsed        6.931 s
  Integrating overlap matrix.
  Time summed over all CPUs for integration: real work        2.451 s, elapsed        2.457 s
  Decreasing sparse matrix size:
  | Tolerance:  0.1000E-12
  Hamiltonian matrix
  | Array has   135728 nonzero elements out of   166099 elements
  | Sparsity factor is 0.183
  Overlap matrix
  | Array has   120584 nonzero elements out of   166099 elements
  | Sparsity factor is 0.274
  New size of hamiltonian matrix:      136145

  Updating Kohn-Sham eigenvalues and eigenvectors using ELSI and the (modified) LAPACK eigensolver.
  Singularity check in k-point 2, task 0 (analysis for other k-points/tasks may follow below):
  Overlap matrix is not singular
  | Lowest and highest eigenvalues :  0.1744E-01,  0.9696E+01
  Finished singularity check of overlap matrix
  | Time :     0.001 s
  Starting LAPACK eigensolver
  Finished Cholesky decomposition
  | Time :     0.001 s
  Finished transformation to standard eigenproblem
  | Time :     0.000 s
  Finished solving standard eigenproblem
  | Time :     0.002 s
  Finished back-transformation of eigenvectors
  | Time :     0.000 s

  Obtaining occupation numbers and chemical potential using ELSI.
  | Chemical potential (Fermi level):    -8.56022491 eV
  Writing Kohn-Sham eigenvalues.

  Spin-up eigenvalues:
  K-point:       1 at    0.000000    0.000000    0.000000 (in units of recip. lattice)

  State    Occupation    Eigenvalue [Ha]    Eigenvalue [eV]
      1       1.00000        -259.383933        -7058.19594
      2       1.00000         -30.206826         -821.96956
      3       1.00000         -25.736675         -700.33056
      4       1.00000         -25.736675         -700.33056
      5       1.00000         -25.736675         -700.33056
      6       1.00000          -3.539439          -96.31305
      7       1.00000          -2.283415          -62.13488
      8       1.00000          -2.283415          -62.13488
      9       1.00000          -2.283415          -62.13488
     10       1.00000          -0.648079          -17.63512
     11       1.00000          -0.398744          -10.85038
     12       1.00000          -0.398741          -10.85030
     13       1.00000          -0.398741          -10.85028
     14       1.00000          -0.340879           -9.27578
     15       1.00000          -0.340878           -9.27576
     16       0.00000           0.807553           21.97464
     17       0.00000           0.807687           21.97827
     18       0.00000           0.832930           22.66519
     19       0.00000           0.833010           22.66735

  Spin-down eigenvalues:
  K-point:       1 at    0.000000    0.000000    0.000000 (in units of recip. lattice)

  State    Occupation    Eigenvalue [Ha]    Eigenvalue [eV]
      1       1.00000        -259.384050        -7058.19913
      2       1.00000         -30.172404         -821.03290
      3       1.00000         -25.710606         -699.62118
      4       1.00000         -25.710606         -699.62118
      5       1.00000         -25.710606         -699.62118
      6       1.00000          -3.461573          -94.19418
      7       1.00000          -2.206860          -60.05171
      8       1.00000          -2.206860          -60.05171
      9       1.00000          -2.206860          -60.05171
     10       1.00000          -0.628150          -17.09282
     11       1.00000          -0.332610           -9.05077
     12       1.00000          -0.332605           -9.05065
     13       1.00000          -0.332605           -9.05063
     14       0.00000          -0.270936           -7.37253
     15       0.00000          -0.270934           -7.37249
     16       0.00000           0.833488           22.68037
     17       0.00000           0.833623           22.68403
     18       0.00000           0.860034           23.40272
     19       0.00000           0.860115           23.40492

  Current spin moment of the entire structure :
  | N = N_up - N_down (sum over all k points):         2.18503
  | S (sum over all k points)                :         1.09252

  What follows are estimated values for band gap, HOMO, LUMO, etc.
  | They are estimated on a discrete k-point grid and not necessarily exact.
  | For converged numbers, create a DOS and/or band structure plot on a denser k-grid.

  Highest occupied state (VBM) at     -8.58386376 eV (relative to internal zero)
  | Occupation number:      0.63092486
  | K-point:      72 at    0.166667    0.833333    0.833333 (in units of recip. lattice)
  | Spin channel:        2

  Lowest unoccupied state (CBM) at    -8.43245023 eV (relative to internal zero)
  | Occupation number:      0.03538060
  | K-point:      19 at    0.000000    0.500000    0.000000 (in units of recip. lattice)
  | Spin channel:        1

  ESTIMATED overall HOMO-LUMO gap:      0.15141354 eV between HOMO at k-point 72 and LUMO at k-point 19
  | This appears to be an indirect band gap.
  | Smallest direct gap :      0.18314556 eV for k_point 72 at    0.166667    0.833333    0.833333 (in units of recip. lattice)
  | Direct gap HOMO spin channel :     2
  | Direct gap LUMO spin channel :     2
  However, this system has fractional occupation numbers. Since we use a finite k-point grid,
  this material is metallic within the approximate finite broadening function (occupation_type)
  applied to determine the occupation numbers.
  Calculating total energy contributions from superposition of free atom densities.

  Total energy components:
  | Sum of eigenvalues            :        -757.19891874 Ha      -20604.43092080 eV
  | XC energy correction          :         -56.05461999 Ha       -1525.32381758 eV
  | XC potential correction       :          72.75746583 Ha        1979.83137801 eV
  | Free-atom electrostatic energy:        -537.16788859 Ha      -14617.08195743 eV
  | Hartree energy correction     :          -0.00000000 Ha          -0.00000000 eV
  | vdW energy correction         :           0.00000000 Ha           0.00000000 eV
  | Entropy correction            :          -0.00004405 Ha          -0.00119868 eV
  | ---------------------------
  | Total energy                  :       -1277.66396149 Ha      -34767.00531781 eV
  | Total energy, T -> 0          :       -1277.66400554 Ha      -34767.00651649 eV  <-- do not rely on this value for anything but (periodic) metals
  | Electronic free energy        :       -1277.66404959 Ha      -34767.00771518 eV

  Derived energy quantities:
  | Kinetic energy                :        1293.32417072 Ha       35193.14129255 eV
  | Electrostatic energy          :       -2514.93351221 Ha      -68434.82279278 eV
  | Energy correction for multipole
  | error in Hartree potential    :           0.00000000 Ha           0.00000000 eV
  | Sum of eigenvalues per atom                           :      -20604.43092080 eV
  | Total energy (T->0) per atom                          :      -34767.00651649 eV  <-- do not rely on this value for anything but (periodic) metals
  | Electronic free energy per atom                       :      -34767.00771518 eV
  Initialize hartree_potential_storage
  Max. number of atoms included in rho_multipole:            1

  End scf initialization - timings             :  max(cpu_time)    wall_clock(cpu1)
  | Time for scf. initialization               :        5.562 s           6.007 s
  | Boundary condition initialization          :        0.219 s           0.245 s
  | Integration                                :        4.422 s           4.764 s
  | Solution of K.-S. eqns.                    :        0.469 s           0.500 s
  | Grid partitioning                          :        0.062 s           0.068 s
  | Preloading free-atom quantities on grid    :        0.344 s           0.380 s
  | Free-atom superposition energy             :        0.031 s           0.038 s
  | Total energy evaluation                    :        0.000 s           0.001 s

  Partial memory accounting:
  | Current value for overall tracked memory usage:
  |   Minimum:        6.141 MB (on task 0)
  |   Maximum:        6.141 MB (on task 0)
  |   Average:        6.141 MB
  | Peak value for overall tracked memory usage:
  |   Minimum:       26.908 MB (on task 0 after allocating wave)
  |   Maximum:       27.387 MB (on task 1 after allocating wave)
  |   Average:       27.148 MB
  | Largest tracked array allocation so far:
  |   Minimum:       14.341 MB (hamiltonian_shell on task 0)
  |   Maximum:       14.741 MB (hamiltonian_shell on task 1)
  |   Average:       14.541 MB
  Note:  These values currently only include a subset of arrays which are explicitly tracked.
  The "true" memory usage will be greater.
------------------------------------------------------------

------------------------------------------------------------
          Begin self-consistency iteration #    1

  Date     :  20201111, Time     :  143212.435
------------------------------------------------------------
  Evaluating new KS density using the density matrix
  Evaluating density matrix
  Evaluating density matrix
  Time summed over all CPUs for getting density from density matrix: real work       13.069 s, elapsed       13.152 s
  Integration grid: deviation in total charge (<rho> - N_e) =  -6.536993E-13
  | <rho_up-rho_dn> = N_up-N_dn =      2.1850; <|rho_up-rho_dn|> =      2.2139
  Pulay mixing of updated and previous charge densities.
  Renormalizing the density to the exact electron count on the 3D integration grid.
  | Formal number of electrons (from input files) :      26.0000000000
  | Integrated number of electrons on 3D grid     :      26.0000571064
  | Charge integration error                      :       0.0000571064
  | Normalization factor for density and gradient :       0.9999978036

  Evaluating partitioned Hartree potential by multipole expansion.
  | Original multipole sum: apparent total charge =  -0.991667E-14
  | Sum of charges compensated after spline to logarithmic grids =   0.524441E-07
  | Analytical far-field extrapolation by fixed multipoles:
  | Hartree multipole sum: apparent total charge =  -0.000000E+00
  Summing up the Hartree potential.
  Time summed over all CPUs for potential: real work        0.449 s, elapsed        0.457 s
  | RMS charge density error from multipole expansion :   0.219292E-04
  | Average real-space part of the electrostatic potential :      0.01843831 eV

  Integrating Hamiltonian matrix: batch-based integration.
  Time summed over all CPUs for integration: real work        6.457 s, elapsed        6.463 s

  Updating Kohn-Sham eigenvalues and eigenvectors using ELSI and the (modified) LAPACK eigensolver.
  Starting LAPACK eigensolver
  Finished Cholesky decomposition
  | Time :     0.000 s
  Finished transformation to standard eigenproblem
  | Time :     0.000 s
  Finished solving standard eigenproblem
  | Time :     0.000 s
  Finished back-transformation of eigenvectors
  | Time :     0.000 s

  Obtaining occupation numbers and chemical potential using ELSI.
  | Chemical potential (Fermi level):    -8.50775536 eV
  Writing Kohn-Sham eigenvalues.

  Spin-up eigenvalues:
  K-point:       1 at    0.000000    0.000000    0.000000 (in units of recip. lattice)

  State    Occupation    Eigenvalue [Ha]    Eigenvalue [eV]
      1       1.00000        -259.380769        -7058.10985
      2       1.00000         -30.202912         -821.86306
      3       1.00000         -25.732848         -700.22642
      4       1.00000         -25.732848         -700.22642
      5       1.00000         -25.732848         -700.22642
      6       1.00000          -3.536680          -96.23795
      7       1.00000          -2.280781          -62.06321
      8       1.00000          -2.280781          -62.06321
      9       1.00000          -2.280781          -62.06321
     10       1.00000          -0.648241          -17.63955
     11       1.00000          -0.396735          -10.79571
     12       1.00000          -0.396732          -10.79563
     13       1.00000          -0.396732          -10.79561
     14       1.00000          -0.338819           -9.21974
     15       1.00000          -0.338818           -9.21972
     16       0.00000           0.807772           21.98059
     17       0.00000           0.807905           21.98422
     18       0.00000           0.832922           22.66495
     19       0.00000           0.833001           22.66712

  Spin-down eigenvalues:
  K-point:       1 at    0.000000    0.000000    0.000000 (in units of recip. lattice)

  State    Occupation    Eigenvalue [Ha]    Eigenvalue [eV]
      1       1.00000        -259.380881        -7058.11288
      2       1.00000         -30.168391         -820.92367
      3       1.00000         -25.706699         -699.51488
      4       1.00000         -25.706699         -699.51488
      5       1.00000         -25.706699         -699.51488
      6       1.00000          -3.458620          -94.11384
      7       1.00000          -2.204041          -59.97501
      8       1.00000          -2.204041          -59.97501
      9       1.00000          -2.204041          -59.97501
     10       1.00000          -0.628496          -17.10224
     11       1.00000          -0.330675           -8.99813
     12       1.00000          -0.330671           -8.99801
     13       1.00000          -0.330670           -8.99799
     14       0.00000          -0.268547           -7.30755
     15       0.00000          -0.268546           -7.30751
     16       0.00000           0.833717           22.68659
     17       0.00000           0.833852           22.69026
     18       0.00000           0.859883           23.39859
     19       0.00000           0.859963           23.40079

  Current spin moment of the entire structure :
  | N = N_up - N_down (sum over all k points):         2.18595
  | S (sum over all k points)                :         1.09297

  What follows are estimated values for band gap, HOMO, LUMO, etc.
  | They are estimated on a discrete k-point grid and not necessarily exact.
  | For converged numbers, create a DOS and/or band structure plot on a denser k-grid.

  Highest occupied state (VBM) at     -8.52901565 eV (relative to internal zero)
  | Occupation number:      0.61816535
  | K-point:      72 at    0.166667    0.833333    0.833333 (in units of recip. lattice)
  | Spin channel:        2

  Lowest unoccupied state (CBM) at    -8.43365726 eV (relative to internal zero)
  | Occupation number:      0.14734108
  | K-point:      19 at    0.000000    0.500000    0.000000 (in units of recip. lattice)
  | Spin channel:        1

  ESTIMATED overall HOMO-LUMO gap:      0.09535839 eV between HOMO at k-point 72 and LUMO at k-point 19
  | This appears to be an indirect band gap.
  | Smallest direct gap :      0.18375171 eV for k_point 72 at    0.166667    0.833333    0.833333 (in units of recip. lattice)
  | Direct gap HOMO spin channel :     2
  | Direct gap LUMO spin channel :     2
  However, this system has fractional occupation numbers. Since we use a finite k-point grid,
  this material is metallic within the approximate finite broadening function (occupation_type)
  applied to determine the occupation numbers.

  Total energy components:
  | Sum of eigenvalues            :        -757.12800602 Ha      -20602.50128759 eV
  | XC energy correction          :         -56.05240636 Ha       -1525.26358151 eV
  | XC potential correction       :          72.75457494 Ha        1979.75271271 eV
  | Free-atom electrostatic energy:        -537.16788859 Ha      -14617.08195743 eV
  | Hartree energy correction     :          -0.07081439 Ha          -1.92695756 eV
  | vdW energy correction         :           0.00000000 Ha           0.00000000 eV
  | Entropy correction            :          -0.00005368 Ha          -0.00146076 eV
  | ---------------------------
  | Total energy                  :       -1277.66454042 Ha      -34767.02107139 eV
  | Total energy, T -> 0          :       -1277.66459410 Ha      -34767.02253215 eV  <-- do not rely on this value for anything but (periodic) metals
  | Electronic free energy        :       -1277.66464778 Ha      -34767.02399291 eV

  Derived energy quantities:
  | Kinetic energy                :        1293.32323621 Ha       35193.11586320 eV
  | Electrostatic energy          :       -2514.93537027 Ha      -68434.87335307 eV
  | Energy correction for multipole
  | error in Hartree potential    :          -0.00000435 Ha          -0.00011844 eV
  | Sum of eigenvalues per atom                           :      -20602.50128759 eV
  | Total energy (T->0) per atom                          :      -34767.02253215 eV  <-- do not rely on this value for anything but (periodic) metals
  | Electronic free energy per atom                       :      -34767.02399291 eV

  Self-consistency convergence accuracy:
  | Change of charge/spin density :  0.7965E-01  0.1405E+00
  | Change of sum of eigenvalues  :  0.1930E+01 eV
  | Change of total energy        : -0.1575E-01 eV

  End self-consistency iteration #     1       :  max(cpu_time)    wall_clock(cpu1)
  | Time for this iteration                    :       10.500 s          10.954 s
  | Charge density update                      :        6.547 s           6.829 s
  | Density mixing & preconditioning           :        0.281 s           0.285 s
  | Hartree multipole update                   :        0.000 s           0.003 s
  | Hartree multipole summation                :        0.234 s           0.232 s
  | Integration                                :        3.094 s           3.243 s
  | Solution of K.-S. eqns.                    :        0.359 s           0.355 s
  | Total energy evaluation                    :        0.000 s           0.000 s

  Partial memory accounting:
  | Current value for overall tracked memory usage:
  |   Minimum:        6.141 MB (on task 0)
  |   Maximum:        6.141 MB (on task 0)
  |   Average:        6.141 MB
  | Peak value for overall tracked memory usage:
  |   Minimum:       28.271 MB (on task 0 after allocating KS_scaled_cmplx)
  |   Maximum:       28.764 MB (on task 1 after allocating KS_scaled_cmplx)
  |   Average:       28.518 MB
  | Largest tracked array allocation so far:
  |   Minimum:       14.341 MB (hamiltonian_shell on task 0)
  |   Maximum:       14.741 MB (hamiltonian_shell on task 1)
  |   Average:       14.541 MB
  Note:  These values currently only include a subset of arrays which are explicitly tracked.
  The "true" memory usage will be greater.
------------------------------------------------------------

------------------------------------------------------------
          Begin self-consistency iteration #    2

  Date     :  20201111, Time     :  143223.391
------------------------------------------------------------
  Evaluating new KS density using the density matrix
  Evaluating density matrix
  Evaluating density matrix
  Time summed over all CPUs for getting density from density matrix: real work       11.530 s, elapsed       11.542 s
  Integration grid: deviation in total charge (<rho> - N_e) =  -6.039613E-13
  | <rho_up-rho_dn> = N_up-N_dn =      2.1859; <|rho_up-rho_dn|> =      2.2131
  Pulay mixing of updated and previous charge densities.
  Renormalizing the density to the exact electron count on the 3D integration grid.
  | Formal number of electrons (from input files) :      26.0000000000
  | Integrated number of electrons on 3D grid     :      25.9999509261
  | Charge integration error                      :      -0.0000490739
  | Normalization factor for density and gradient :       1.0000018875

  Evaluating partitioned Hartree potential by multipole expansion.
  | Original multipole sum: apparent total charge =  -0.703741E-13
  | Sum of charges compensated after spline to logarithmic grids =   0.635113E-07
  | Analytical far-field extrapolation by fixed multipoles:
  | Hartree multipole sum: apparent total charge =  -0.000000E+00
  Summing up the Hartree potential.
  Time summed over all CPUs for potential: real work        0.295 s, elapsed        0.295 s
  | RMS charge density error from multipole expansion :   0.339424E-04
  | Average real-space part of the electrostatic potential :      0.02515660 eV

  Integrating Hamiltonian matrix: batch-based integration.
  Time summed over all CPUs for integration: real work        5.755 s, elapsed        5.796 s

  Updating Kohn-Sham eigenvalues and eigenvectors using ELSI and the (modified) LAPACK eigensolver.
  Starting LAPACK eigensolver
  Finished Cholesky decomposition
  | Time :     0.000 s
  Finished transformation to standard eigenproblem
  | Time :     0.000 s
  Finished solving standard eigenproblem
  | Time :     0.000 s
  Finished back-transformation of eigenvectors
  | Time :     0.001 s

  Obtaining occupation numbers and chemical potential using ELSI.
  | Chemical potential (Fermi level):    -8.48990928 eV
  Current spin moment of the entire structure :
  | N = N_up - N_down (sum over all k points):         2.18536
  | S (sum over all k points)                :         1.09268

  What follows are estimated values for band gap, HOMO, LUMO, etc.
  | They are estimated on a discrete k-point grid and not necessarily exact.
  | For converged numbers, create a DOS and/or band structure plot on a denser k-grid.

  Highest occupied state (VBM) at     -8.51387312 eV (relative to internal zero)
  | Occupation number:      0.63265740
  | K-point:      72 at    0.166667    0.833333    0.833333 (in units of recip. lattice)
  | Spin channel:        2

  Lowest unoccupied state (CBM) at    -8.43306581 eV (relative to internal zero)
  | Occupation number:      0.21073079
  | K-point:      19 at    0.000000    0.500000    0.000000 (in units of recip. lattice)
  | Spin channel:        1

  ESTIMATED overall HOMO-LUMO gap:      0.08080731 eV between HOMO at k-point 72 and LUMO at k-point 19
  | This appears to be an indirect band gap.
  | Smallest direct gap :      0.18975943 eV for k_point 72 at    0.166667    0.833333    0.833333 (in units of recip. lattice)
  | Direct gap HOMO spin channel :     2
  | Direct gap LUMO spin channel :     2
  However, this system has fractional occupation numbers. Since we use a finite k-point grid,
  this material is metallic within the approximate finite broadening function (occupation_type)
  applied to determine the occupation numbers.

  Total energy components:
  | Sum of eigenvalues            :        -757.09351622 Ha      -20601.56277240 eV
  | XC energy correction          :         -56.05456617 Ha       -1525.32235292 eV
  | XC potential correction       :          72.75739545 Ha        1979.82946283 eV
  | Free-atom electrostatic energy:        -537.16788859 Ha      -14617.08195743 eV
  | Hartree energy correction     :          -0.10606641 Ha          -2.88621378 eV
  | vdW energy correction         :           0.00000000 Ha           0.00000000 eV
  | Entropy correction            :          -0.00005834 Ha          -0.00158764 eV
  | ---------------------------
  | Total energy                  :       -1277.66464193 Ha      -34767.02383370 eV
  | Total energy, T -> 0          :       -1277.66470028 Ha      -34767.02542134 eV  <-- do not rely on this value for anything but (periodic) metals
  | Electronic free energy        :       -1277.66475862 Ha      -34767.02700898 eV

  Derived energy quantities:
  | Kinetic energy                :        1293.35245961 Ha       35193.91107250 eV
  | Electrostatic energy          :       -2514.96253538 Ha      -68435.61255328 eV
  | Energy correction for multipole
  | error in Hartree potential    :          -0.00000883 Ha          -0.00024038 eV
  | Sum of eigenvalues per atom                           :      -20601.56277240 eV
  | Total energy (T->0) per atom                          :      -34767.02542134 eV  <-- do not rely on this value for anything but (periodic) metals
  | Electronic free energy per atom                       :      -34767.02700898 eV

  Self-consistency convergence accuracy:
  | Change of charge/spin density :  0.8554E-01  0.1376E+00
  | Change of sum of eigenvalues  :  0.9385E+00 eV
  | Change of total energy        : -0.2762E-02 eV

  End self-consistency iteration #     2       :  max(cpu_time)    wall_clock(cpu1)
  | Time for this iteration                    :        9.328 s           9.624 s
  | Charge density update                      :        5.766 s           6.041 s
  | Density mixing & preconditioning           :        0.234 s           0.233 s
  | Hartree multipole update                   :        0.000 s           0.001 s
  | Hartree multipole summation                :        0.156 s           0.151 s
  | Integration                                :        2.875 s           2.910 s
  | Solution of K.-S. eqns.                    :        0.281 s           0.286 s
  | Total energy evaluation                    :        0.000 s           0.001 s

  Partial memory accounting:
  | Current value for overall tracked memory usage:
  |   Minimum:        6.141 MB (on task 0)
  |   Maximum:        6.141 MB (on task 0)
  |   Average:        6.141 MB
  | Peak value for overall tracked memory usage:
  |   Minimum:       28.271 MB (on task 0 after allocating KS_scaled_cmplx)
  |   Maximum:       28.764 MB (on task 1 after allocating KS_scaled_cmplx)
  |   Average:       28.518 MB
  | Largest tracked array allocation so far:
  |   Minimum:       14.341 MB (hamiltonian_shell on task 0)
  |   Maximum:       14.741 MB (hamiltonian_shell on task 1)
  |   Average:       14.541 MB
  Note:  These values currently only include a subset of arrays which are explicitly tracked.
  The "true" memory usage will be greater.
------------------------------------------------------------

------------------------------------------------------------
          Begin self-consistency iteration #    3

  Date     :  20201111, Time     :  143233.017
------------------------------------------------------------
  Evaluating new KS density using the density matrix
  Evaluating density matrix
  Evaluating density matrix
  Time summed over all CPUs for getting density from density matrix: real work       11.364 s, elapsed       11.383 s
  Integration grid: deviation in total charge (<rho> - N_e) =  -6.323830E-13
  | <rho_up-rho_dn> = N_up-N_dn =      2.1854; <|rho_up-rho_dn|> =      2.2110
  Pulay mixing of updated and previous charge densities.
  Renormalizing the density to the exact electron count on the 3D integration grid.
  | Formal number of electrons (from input files) :      26.0000000000
  | Integrated number of electrons on 3D grid     :      26.0044328048
  | Charge integration error                      :       0.0044328048
  | Normalization factor for density and gradient :       0.9998295366

  Evaluating partitioned Hartree potential by multipole expansion.
  | Original multipole sum: apparent total charge =   0.105644E-13
  | Sum of charges compensated after spline to logarithmic grids =  -0.817841E-06
  | Analytical far-field extrapolation by fixed multipoles:
  | Hartree multipole sum: apparent total charge =  -0.000000E+00
  Summing up the Hartree potential.
  Time summed over all CPUs for potential: real work        0.357 s, elapsed        0.361 s
  | RMS charge density error from multipole expansion :   0.349919E-02
  | Average real-space part of the electrostatic potential :     -0.55470833 eV

  Integrating Hamiltonian matrix: batch-based integration.
  Time summed over all CPUs for integration: real work        5.782 s, elapsed        5.804 s

  Updating Kohn-Sham eigenvalues and eigenvectors using ELSI and the (modified) LAPACK eigensolver.
  Starting LAPACK eigensolver
  Finished Cholesky decomposition
  | Time :     0.000 s
  Finished transformation to standard eigenproblem
  | Time :     0.000 s
  Finished solving standard eigenproblem
  | Time :     0.000 s
  Finished back-transformation of eigenvectors
  | Time :     0.000 s

  Obtaining occupation numbers and chemical potential using ELSI.
  | Chemical potential (Fermi level):   -10.43046797 eV
  Current spin moment of the entire structure :
  | N = N_up - N_down (sum over all k points):         2.23582
  | S (sum over all k points)                :         1.11791

  What follows are estimated values for band gap, HOMO, LUMO, etc.
  | They are estimated on a discrete k-point grid and not necessarily exact.
  | For converged numbers, create a DOS and/or band structure plot on a denser k-grid.

  Highest occupied state (VBM) at    -10.51274214 eV (relative to internal zero)
  | Occupation number:      0.87769322
  | K-point:      27 at    0.000000    0.666667    0.333333 (in units of recip. lattice)
  | Spin channel:        2

  Lowest unoccupied state (CBM) at   -10.42303429 eV (relative to internal zero)
  | Occupation number:      0.45813706
  | K-point:     130 at    0.500000    0.500000    0.500000 (in units of recip. lattice)
  | Spin channel:        1

  ESTIMATED overall HOMO-LUMO gap:      0.08970785 eV between HOMO at k-point 27 and LUMO at k-point 130
  | This appears to be an indirect band gap.
  | Smallest direct gap :      0.50375987 eV for k_point 48 at    0.166667    0.166667    0.833333 (in units of recip. lattice)
  | Direct gap HOMO spin channel :     2
  | Direct gap LUMO spin channel :     2
  However, this system has fractional occupation numbers. Since we use a finite k-point grid,
  this material is metallic within the approximate finite broadening function (occupation_type)
  applied to determine the occupation numbers.

  Checking to see if s.c.f. parameters should be adjusted.

  Total energy components:
  | Sum of eigenvalues            :        -760.09124697 Ha      -20683.13517629 eV
  | XC energy correction          :         -55.87576390 Ha       -1520.45689566 eV
  | XC potential correction       :          72.52312674 Ha        1973.45468686 eV
  | Free-atom electrostatic energy:        -537.16788859 Ha      -14617.08195743 eV
  | Hartree energy correction     :           2.92476327 Ha          79.58685782 eV
  | vdW energy correction         :           0.00000000 Ha           0.00000000 eV
  | Entropy correction            :          -0.00004137 Ha          -0.00112584 eV
  | ---------------------------
  | Total energy                  :       -1277.68700945 Ha      -34767.63248470 eV
  | Total energy, T -> 0          :       -1277.68705082 Ha      -34767.63361054 eV  <-- do not rely on this value for anything but (periodic) metals
  | Electronic free energy        :       -1277.68709219 Ha      -34767.63473638 eV

  Derived energy quantities:
  | Kinetic energy                :        1290.78267906 Ha       35123.98378586 eV
  | Electrostatic energy          :       -2512.59392461 Ha      -68371.15937491 eV
  | Energy correction for multipole
  | error in Hartree potential    :           0.00040081 Ha           0.01090652 eV
  | Sum of eigenvalues per atom                           :      -20683.13517629 eV
  | Total energy (T->0) per atom                          :      -34767.63361054 eV  <-- do not rely on this value for anything but (periodic) metals
  | Electronic free energy per atom                       :      -34767.63473638 eV

  Self-consistency convergence accuracy:
  | Change of charge/spin density :  0.8947E-01  0.1385E+00
  | Change of sum of eigenvalues  : -0.8157E+02 eV
  | Change of total energy        : -0.6087E+00 eV

  End self-consistency iteration #     3       :  max(cpu_time)    wall_clock(cpu1)
  | Time for this iteration                    :        9.266 s           9.501 s
  | Charge density update                      :        5.766 s           5.880 s
  | Density mixing & preconditioning           :        0.203 s           0.202 s
  | Hartree multipole update                   :        0.000 s           0.003 s
  | Hartree multipole summation                :        0.188 s           0.184 s
  | Integration                                :        2.797 s           2.912 s
  | Solution of K.-S. eqns.                    :        0.312 s           0.318 s
  | Total energy evaluation                    :        0.000 s           0.000 s

  Partial memory accounting:
  | Current value for overall tracked memory usage:
  |   Minimum:        6.141 MB (on task 0)
  |   Maximum:        6.141 MB (on task 0)
  |   Average:        6.141 MB
  | Peak value for overall tracked memory usage:
  |   Minimum:       28.272 MB (on task 0 after allocating KS_scaled_cmplx)
  |   Maximum:       28.765 MB (on task 1 after allocating KS_scaled_cmplx)
  |   Average:       28.518 MB
  | Largest tracked array allocation so far:
  |   Minimum:       14.341 MB (hamiltonian_shell on task 0)
  |   Maximum:       14.741 MB (hamiltonian_shell on task 1)
  |   Average:       14.541 MB
  Note:  These values currently only include a subset of arrays which are explicitly tracked.
  The "true" memory usage will be greater.
------------------------------------------------------------

------------------------------------------------------------
          Begin self-consistency iteration #    4

  Date     :  20201111, Time     :  143242.519
------------------------------------------------------------
  Evaluating new KS density using the density matrix
  Evaluating density matrix
  Evaluating density matrix
  Time summed over all CPUs for getting density from density matrix: real work       11.233 s, elapsed       11.280 s
  Integration grid: deviation in total charge (<rho> - N_e) =  -7.105427E-13
  | <rho_up-rho_dn> = N_up-N_dn =      2.2358; <|rho_up-rho_dn|> =      2.3462
  Pulay mixing of updated and previous charge densities.
  Renormalizing the density to the exact electron count on the 3D integration grid.
  | Formal number of electrons (from input files) :      26.0000000000
  | Integrated number of electrons on 3D grid     :      25.9996190005
  | Charge integration error                      :      -0.0003809995
  | Normalization factor for density and gradient :       1.0000146540

  Evaluating partitioned Hartree potential by multipole expansion.
  | Original multipole sum: apparent total charge =  -0.572875E-13
  | Sum of charges compensated after spline to logarithmic grids =  -0.706772E-06
  | Analytical far-field extrapolation by fixed multipoles:
  | Hartree multipole sum: apparent total charge =  -0.000000E+00
  Summing up the Hartree potential.
  Time summed over all CPUs for potential: real work        0.385 s, elapsed        0.388 s
  | RMS charge density error from multipole expansion :   0.310018E-02
  | Average real-space part of the electrostatic potential :     -0.48363532 eV

  Integrating Hamiltonian matrix: batch-based integration.
  Time summed over all CPUs for integration: real work        5.898 s, elapsed        5.911 s

  Updating Kohn-Sham eigenvalues and eigenvectors using ELSI and the (modified) LAPACK eigensolver.
  Starting LAPACK eigensolver
  Finished Cholesky decomposition
  | Time :     0.000 s
  Finished transformation to standard eigenproblem
  | Time :     0.000 s
  Finished solving standard eigenproblem
  | Time :     0.001 s
  Finished back-transformation of eigenvectors
  | Time :     0.000 s

  Obtaining occupation numbers and chemical potential using ELSI.
  | Chemical potential (Fermi level):   -10.18112880 eV
  Current spin moment of the entire structure :
  | N = N_up - N_down (sum over all k points):         2.22248
  | S (sum over all k points)                :         1.11124

  What follows are estimated values for band gap, HOMO, LUMO, etc.
  | They are estimated on a discrete k-point grid and not necessarily exact.
  | For converged numbers, create a DOS and/or band structure plot on a denser k-grid.

  Highest occupied state (VBM) at    -10.37718034 eV (relative to internal zero)
  | Occupation number:      0.99721937
  | K-point:      27 at    0.000000    0.666667    0.333333 (in units of recip. lattice)
  | Spin channel:        2

  Lowest unoccupied state (CBM) at   -10.14723147 eV (relative to internal zero)
  | Occupation number:      0.31583391
  | K-point:     130 at    0.500000    0.500000    0.500000 (in units of recip. lattice)
  | Spin channel:        1

  ESTIMATED overall HOMO-LUMO gap:      0.22994887 eV between HOMO at k-point 27 and LUMO at k-point 130
  | This appears to be an indirect band gap.
  | Smallest direct gap :      0.51817576 eV for k_point 48 at    0.166667    0.166667    0.833333 (in units of recip. lattice)
  | Direct gap HOMO spin channel :     2
  | Direct gap LUMO spin channel :     2
  However, this system has fractional occupation numbers. Since we use a finite k-point grid,
  this material is metallic within the approximate finite broadening function (occupation_type)
  applied to determine the occupation numbers.

  Total energy components:
  | Sum of eigenvalues            :        -759.71356500 Ha      -20672.85792713 eV
  | XC energy correction          :         -55.89805817 Ha       -1521.06355360 eV
  | XC potential correction       :          72.55236284 Ha        1974.25024162 eV
  | Free-atom electrostatic energy:        -537.16788859 Ha      -14617.08195743 eV
  | Hartree energy correction     :           2.54634064 Ha          69.28945411 eV
  | vdW energy correction         :           0.00000000 Ha           0.00000000 eV
  | Entropy correction            :          -0.00001931 Ha          -0.00052550 eV
  | ---------------------------
  | Total energy                  :       -1277.68080828 Ha      -34767.46374243 eV
  | Total energy, T -> 0          :       -1277.68082759 Ha      -34767.46426793 eV  <-- do not rely on this value for anything but (periodic) metals
  | Electronic free energy        :       -1277.68084691 Ha      -34767.46479342 eV

  Derived energy quantities:
  | Kinetic energy                :        1291.10248053 Ha       35132.68602656 eV
  | Electrostatic energy          :       -2512.88523064 Ha      -68379.08621539 eV
  | Energy correction for multipole
  | error in Hartree potential    :           0.00035073 Ha           0.00954397 eV
  | Sum of eigenvalues per atom                           :      -20672.85792713 eV
  | Total energy (T->0) per atom                          :      -34767.46426793 eV  <-- do not rely on this value for anything but (periodic) metals
  | Electronic free energy per atom                       :      -34767.46479342 eV

  Self-consistency convergence accuracy:
  | Change of charge/spin density :  0.2507E+00  0.6800E-01
  | Change of sum of eigenvalues  :  0.1028E+02 eV
  | Change of total energy        :  0.1687E+00 eV

  End self-consistency iteration #     4       :  max(cpu_time)    wall_clock(cpu1)
  | Time for this iteration                    :        9.500 s           9.685 s
  | Charge density update                      :        5.797 s           5.879 s
  | Density mixing & preconditioning           :        0.297 s           0.310 s
  | Hartree multipole update                   :        0.000 s           0.004 s
  | Hartree multipole summation                :        0.203 s           0.196 s
  | Integration                                :        2.891 s           2.969 s
  | Solution of K.-S. eqns.                    :        0.328 s           0.325 s
  | Total energy evaluation                    :        0.000 s           0.000 s

  Partial memory accounting:
  | Current value for overall tracked memory usage:
  |   Minimum:        6.141 MB (on task 0)
  |   Maximum:        6.141 MB (on task 0)
  |   Average:        6.141 MB
  | Peak value for overall tracked memory usage:
  |   Minimum:       28.272 MB (on task 0 after allocating KS_scaled_cmplx)
  |   Maximum:       28.765 MB (on task 1 after allocating KS_scaled_cmplx)
  |   Average:       28.518 MB
  | Largest tracked array allocation so far:
  |   Minimum:       14.341 MB (hamiltonian_shell on task 0)
  |   Maximum:       14.741 MB (hamiltonian_shell on task 1)
  |   Average:       14.541 MB
  Note:  These values currently only include a subset of arrays which are explicitly tracked.
  The "true" memory usage will be greater.
------------------------------------------------------------

------------------------------------------------------------
          Begin self-consistency iteration #    5

  Date     :  20201111, Time     :  143252.206
------------------------------------------------------------
  Evaluating new KS density using the density matrix
  Evaluating density matrix
  Evaluating density matrix
  Time summed over all CPUs for getting density from density matrix: real work       11.608 s, elapsed       11.621 s
  Integration grid: deviation in total charge (<rho> - N_e) =  -6.394885E-13
  | <rho_up-rho_dn> = N_up-N_dn =      2.2225; <|rho_up-rho_dn|> =      2.3262
  Pulay mixing of updated and previous charge densities.
  Renormalizing the density to the exact electron count on the 3D integration grid.
  | Formal number of electrons (from input files) :      26.0000000000
  | Integrated number of electrons on 3D grid     :      26.0007583949
  | Charge integration error                      :       0.0007583949
  | Normalization factor for density and gradient :       0.9999708318

  Evaluating partitioned Hartree potential by multipole expansion.
  | Original multipole sum: apparent total charge =  -0.204438E-13
  | Sum of charges compensated after spline to logarithmic grids =  -0.361511E-06
  | Analytical far-field extrapolation by fixed multipoles:
  | Hartree multipole sum: apparent total charge =  -0.000000E+00
  Summing up the Hartree potential.
  Time summed over all CPUs for potential: real work        0.446 s, elapsed        0.449 s
  | RMS charge density error from multipole expansion :   0.243381E-02
  | Average real-space part of the electrostatic potential :     -0.28374896 eV

  Integrating Hamiltonian matrix: batch-based integration.
  Time summed over all CPUs for integration: real work        5.644 s, elapsed        5.658 s

  Updating Kohn-Sham eigenvalues and eigenvectors using ELSI and the (modified) LAPACK eigensolver.
  Starting LAPACK eigensolver
  Finished Cholesky decomposition
  | Time :     0.000 s
  Finished transformation to standard eigenproblem
  | Time :     0.001 s
  Finished solving standard eigenproblem
  | Time :     0.000 s
  Finished back-transformation of eigenvectors
  | Time :     0.000 s

  Obtaining occupation numbers and chemical potential using ELSI.
  | Chemical potential (Fermi level):    -9.36088241 eV
  Current spin moment of the entire structure :
  | N = N_up - N_down (sum over all k points):         2.21922
  | S (sum over all k points)                :         1.10961

  What follows are estimated values for band gap, HOMO, LUMO, etc.
  | They are estimated on a discrete k-point grid and not necessarily exact.
  | For converged numbers, create a DOS and/or band structure plot on a denser k-grid.

  Highest occupied state (VBM) at     -9.62700715 eV (relative to internal zero)
  | Occupation number:      0.99991625
  | K-point:     167 at    0.666667    0.500000    0.666667 (in units of recip. lattice)
  | Spin channel:        1

  Lowest unoccupied state (CBM) at    -9.32045370 eV (relative to internal zero)
  | Occupation number:      0.28374627
  | K-point:     130 at    0.500000    0.500000    0.500000 (in units of recip. lattice)
  | Spin channel:        1

  ESTIMATED overall HOMO-LUMO gap:      0.30655345 eV between HOMO at k-point 167 and LUMO at k-point 130
  | This appears to be an indirect band gap.
  | Smallest direct gap :      0.56831386 eV for k_point 48 at    0.166667    0.166667    0.833333 (in units of recip. lattice)
  | Direct gap HOMO spin channel :     2
  | Direct gap LUMO spin channel :     2
  However, this system has fractional occupation numbers. Since we use a finite k-point grid,
  this material is metallic within the approximate finite broadening function (occupation_type)
  applied to determine the occupation numbers.

  Total energy components:
  | Sum of eigenvalues            :        -758.56747140 Ha      -20641.67113352 eV
  | XC energy correction          :         -55.97413570 Ha       -1523.13372865 eV
  | XC potential correction       :          72.65137404 Ha        1976.94447348 eV
  | Free-atom electrostatic energy:        -537.16788859 Ha      -14617.08195743 eV
  | Hartree energy correction     :           1.38935147 Ha          37.80617702 eV
  | vdW energy correction         :           0.00000000 Ha           0.00000000 eV
  | Entropy correction            :          -0.00002060 Ha          -0.00056068 eV
  | ---------------------------
  | Total energy                  :       -1277.66877018 Ha      -34767.13616910 eV
  | Total energy, T -> 0          :       -1277.66879079 Ha      -34767.13672978 eV  <-- do not rely on this value for anything but (periodic) metals
  | Electronic free energy        :       -1277.66881139 Ha      -34767.13729046 eV

  Derived energy quantities:
  | Kinetic energy                :        1292.00791205 Ha       35157.32407189 eV
  | Electrostatic energy          :       -2513.70254653 Ha      -68401.32651233 eV
  | Energy correction for multipole
  | error in Hartree potential    :           0.00024030 Ha           0.00653889 eV
  | Sum of eigenvalues per atom                           :      -20641.67113352 eV
[...]
  Spin-orbit-coupled "band gap" along reciprocal space direction number:    5
  | Lowest unoccupied state:      -8.87445964 eV
  | Highest occupied state :      -8.87712372 eV
  | Energy difference      :       0.00266407 eV


  Treating all   31 k-points in band plot segment #   6:


  Scalar-relativistic "band gap" along reciprocal space direction number:    6
  | Lowest unoccupied state:      -8.86893692 eV
  | Highest occupied state :      -8.93568642 eV
  | Energy difference      :       0.06674949 eV

  Allocating        0.090 MB for mulliken_decomp

  Spin-orbit-coupled "band gap" along reciprocal space direction number:    6
  | Lowest unoccupied state:      -8.86771581 eV
  | Highest occupied state :      -8.93452254 eV
  | Energy difference      :       0.06680673 eV


  Treating all   31 k-points in band plot segment #   7:


  Scalar-relativistic "band gap" along reciprocal space direction number:    7
  | Lowest unoccupied state:      -8.87087166 eV
  | Highest occupied state :      -8.87695760 eV
  | Energy difference      :       0.00608594 eV

  Allocating        0.090 MB for mulliken_decomp

  Spin-orbit-coupled "band gap" along reciprocal space direction number:    7
  | Lowest unoccupied state:      -8.86006590 eV
  | Highest occupied state :      -8.87671237 eV
  | Energy difference      :       0.01664647 eV


  Treating all   31 k-points in band plot segment #   8:


  Scalar-relativistic "band gap" along reciprocal space direction number:    8
  | Lowest unoccupied state:      -8.85729968 eV
  | Highest occupied state :      -8.88238693 eV
  | Energy difference      :       0.02508725 eV

  Allocating        0.090 MB for mulliken_decomp

  Spin-orbit-coupled "band gap" along reciprocal space direction number:    8
  | Lowest unoccupied state:      -8.85546753 eV
  | Highest occupied state :      -8.87712372 eV
  | Energy difference      :       0.02165619 eV


  Treating all   31 k-points in band plot segment #   9:


  Scalar-relativistic "band gap" along reciprocal space direction number:    9
  | Lowest unoccupied state:      -8.84468246 eV
  | Highest occupied state :      -8.87747721 eV
  | Energy difference      :       0.03279475 eV

  Allocating        0.090 MB for mulliken_decomp

  Spin-orbit-coupled "band gap" along reciprocal space direction number:    9
  | Lowest unoccupied state:      -8.87210069 eV
  | Highest occupied state :      -8.88055829 eV
  | Energy difference      :       0.00845760 eV


  Treating all   31 k-points in band plot segment #  10:


  Scalar-relativistic "band gap" along reciprocal space direction number:   10
  | Lowest unoccupied state:      -8.73623261 eV
  | Highest occupied state :      -8.88410296 eV
  | Energy difference      :       0.14787035 eV

  Allocating        0.090 MB for mulliken_decomp

  Spin-orbit-coupled "band gap" along reciprocal space direction number:   10
  | Lowest unoccupied state:      -8.73385699 eV
  | Highest occupied state :      -8.88130426 eV
  | Energy difference      :       0.14744726 eV


  Treating all   31 k-points in band plot segment #  11:


  Scalar-relativistic "band gap" along reciprocal space direction number:   11
  | Lowest unoccupied state:      -8.86948881 eV
  | Highest occupied state :      -8.88045734 eV
  | Energy difference      :       0.01096853 eV

  Allocating        0.090 MB for mulliken_decomp

  Spin-orbit-coupled "band gap" along reciprocal space direction number:   11
  | Lowest unoccupied state:      -8.87445964 eV
  | Highest occupied state :      -8.87712372 eV
  | Energy difference      :       0.00266407 eV


  Treating all   31 k-points in band plot segment #  12:


  Scalar-relativistic "band gap" along reciprocal space direction number:   12
  | Lowest unoccupied state:      -8.86893692 eV
  | Highest occupied state :      -8.93568642 eV
  | Energy difference      :       0.06674949 eV

  Allocating        0.090 MB for mulliken_decomp

  Spin-orbit-coupled "band gap" along reciprocal space direction number:   12
  | Lowest unoccupied state:      -8.86771581 eV
  | Highest occupied state :      -8.93452254 eV
  | Energy difference      :       0.06680673 eV

  Scalar-relativistic "band gap" of total set of bands:
  | Lowest unoccupied state:      -8.87087166 eV
  | Highest occupied state :      -8.87695760 eV
  | Energy difference      :       0.00608594 eV

  Spin-orbit-coupled "band gap" of total set of bands:
  | Lowest unoccupied state:      -8.87445964 eV
  | Highest occupied state :      -8.87671237 eV
  | Energy difference      :       0.00225272 eV


  Band Structure                                          :  max(cpu_time) wall_clock(cpu1)
  | Total Time                                            :         34.578           37.934
------------------------------------------------------------

  -------------------------------------------------------------------
  Writing the requested band structure output (LAPACK version):
  -------------------------------------------------------------------

  Integrating Hamiltonian matrix: batch-based integration.
  Time summed over all CPUs for integration: real work        6.197 s, elapsed        6.224 s
  Integrating SOC matrix: batch-based integration p2 version.
  Allocating        0.102 MB for dist_tab
  Allocating        0.102 MB for dist_tab_sq
  Allocating        0.306 MB for dir_tab
  Allocating        0.006 MB for i_basis_fns
  Allocating        0.154 MB for i_basis_fns_inv
  Allocating        0.006 MB for i_atom_fns
  Allocating        3.358 MB for gradient_basis_wave
  Allocating        0.010 MB for ylm_tab
  Allocating        0.002 MB for radial_wave
  Allocating        0.002 MB for radial_wave_deriv
  Allocating        0.012 MB for i_basis
  Allocating       14.341 MB for soc_shell
  Allocating        0.029 MB for cartesians
  Allocating        0.029 MB for sum_gradient
  Allocating        0.058 MB for sum_hessian
  Allocating        0.001 MB for potential_shell

  Treating all   31 k-points in band plot segment #   1:


  Scalar-relativistic "band gap" along reciprocal space direction number:    1
  | Lowest unoccupied state:      -8.87087166 eV
  | Highest occupied state :      -8.87695760 eV
  | Energy difference      :       0.00608594 eV


Spin-orbit-coupled "band gap" along reciprocal space direction number:    1
  | Lowest unoccupied state:      -8.86006590 eV
  | Highest occupied state :      -8.87671237 eV
  | Energy difference      :       0.01664647 eV


  Treating all   31 k-points in band plot segment #   2:


  Scalar-relativistic "band gap" along reciprocal space direction number:    2
  | Lowest unoccupied state:      -8.85729968 eV
  | Highest occupied state :      -8.88238693 eV
  | Energy difference      :       0.02508725 eV


Spin-orbit-coupled "band gap" along reciprocal space direction number:    2
  | Lowest unoccupied state:      -8.85546753 eV
  | Highest occupied state :      -8.87712372 eV
  | Energy difference      :       0.02165619 eV


  Treating all   31 k-points in band plot segment #   3:


  Scalar-relativistic "band gap" along reciprocal space direction number:    3
  | Lowest unoccupied state:      -8.84468246 eV
  | Highest occupied state :      -8.87747721 eV
  | Energy difference      :       0.03279475 eV


Spin-orbit-coupled "band gap" along reciprocal space direction number:    3
  | Lowest unoccupied state:      -8.87210069 eV
  | Highest occupied state :      -8.88055829 eV
  | Energy difference      :       0.00845760 eV


  Treating all   31 k-points in band plot segment #   4:


  Scalar-relativistic "band gap" along reciprocal space direction number:    4
  | Lowest unoccupied state:      -8.73623261 eV
  | Highest occupied state :      -8.88410296 eV
  | Energy difference      :       0.14787035 eV


Spin-orbit-coupled "band gap" along reciprocal space direction number:    4
  | Lowest unoccupied state:      -8.73385699 eV
  | Highest occupied state :      -8.88130426 eV
  | Energy difference      :       0.14744726 eV


  Treating all   31 k-points in band plot segment #   5:


  Scalar-relativistic "band gap" along reciprocal space direction number:    5
  | Lowest unoccupied state:      -8.86948881 eV
  | Highest occupied state :      -8.88045734 eV
  | Energy difference      :       0.01096853 eV


Spin-orbit-coupled "band gap" along reciprocal space direction number:    5
  | Lowest unoccupied state:      -8.87445964 eV
  | Highest occupied state :      -8.87712372 eV
  | Energy difference      :       0.00266407 eV


  Treating all   31 k-points in band plot segment #   6:


  Scalar-relativistic "band gap" along reciprocal space direction number:    6
  | Lowest unoccupied state:      -8.86893692 eV
  | Highest occupied state :      -8.93568642 eV
  | Energy difference      :       0.06674949 eV


Spin-orbit-coupled "band gap" along reciprocal space direction number:    6
  | Lowest unoccupied state:      -8.86771581 eV
  | Highest occupied state :      -8.93452254 eV
  | Energy difference      :       0.06680673 eV


  Treating all   31 k-points in band plot segment #   7:


  Scalar-relativistic "band gap" along reciprocal space direction number:    7
  | Lowest unoccupied state:      -8.87087166 eV
  | Highest occupied state :      -8.87695760 eV
  | Energy difference      :       0.00608594 eV


Spin-orbit-coupled "band gap" along reciprocal space direction number:    7
  | Lowest unoccupied state:      -8.86006590 eV
  | Highest occupied state :      -8.87671237 eV
  | Energy difference      :       0.01664647 eV


  Treating all   31 k-points in band plot segment #   8:


  Scalar-relativistic "band gap" along reciprocal space direction number:    8
  | Lowest unoccupied state:      -8.85729968 eV
  | Highest occupied state :      -8.88238693 eV
  | Energy difference      :       0.02508725 eV


Spin-orbit-coupled "band gap" along reciprocal space direction number:    8
  | Lowest unoccupied state:      -8.85546753 eV
  | Highest occupied state :      -8.87712372 eV
  | Energy difference      :       0.02165619 eV


  Treating all   31 k-points in band plot segment #   9:


  Scalar-relativistic "band gap" along reciprocal space direction number:    9
  | Lowest unoccupied state:      -8.84468246 eV
  | Highest occupied state :      -8.87747721 eV
  | Energy difference      :       0.03279475 eV


Spin-orbit-coupled "band gap" along reciprocal space direction number:    9
  | Lowest unoccupied state:      -8.87210069 eV
  | Highest occupied state :      -8.88055829 eV
  | Energy difference      :       0.00845760 eV


  Treating all   31 k-points in band plot segment #  10:


  Scalar-relativistic "band gap" along reciprocal space direction number:   10
  | Lowest unoccupied state:      -8.73623261 eV
  | Highest occupied state :      -8.88410296 eV
  | Energy difference      :       0.14787035 eV


Spin-orbit-coupled "band gap" along reciprocal space direction number:   10
  | Lowest unoccupied state:      -8.73385699 eV
  | Highest occupied state :      -8.88130426 eV
  | Energy difference      :       0.14744726 eV


  Treating all   31 k-points in band plot segment #  11:


  Scalar-relativistic "band gap" along reciprocal space direction number:   11
  | Lowest unoccupied state:      -8.86948881 eV
  | Highest occupied state :      -8.88045734 eV
  | Energy difference      :       0.01096853 eV


Spin-orbit-coupled "band gap" along reciprocal space direction number:   11
  | Lowest unoccupied state:      -8.87445964 eV
  | Highest occupied state :      -8.87712372 eV
  | Energy difference      :       0.00266407 eV


  Treating all   31 k-points in band plot segment #  12:


  Scalar-relativistic "band gap" along reciprocal space direction number:   12
  | Lowest unoccupied state:      -8.86893692 eV
  | Highest occupied state :      -8.93568642 eV
  | Energy difference      :       0.06674949 eV


Spin-orbit-coupled "band gap" along reciprocal space direction number:   12
  | Lowest unoccupied state:      -8.86771581 eV
  | Highest occupied state :      -8.93452254 eV
  | Energy difference      :       0.06680673 eV

  Scalar-relativistic "band gap" of total set of bands:
  | Lowest unoccupied state:      -8.87087166 eV
  | Highest occupied state :      -8.87695760 eV
  | Energy difference      :       0.00608594 eV

  Spin-orbit-coupled "band gap" of total set of bands:
  | Lowest unoccupied state:      -8.87445964 eV
  | Highest occupied state :      -8.87671237 eV
  | Energy difference      :       0.00225272 eV


  Band Structure                                          :  max(cpu_time) wall_clock(cpu1)
  | Total Time                                            :         15.828           16.979
------------------------------------------------------------

------------------------------------------------------------------------------
  Final output of selected total energy values:

  The following output summarizes some interesting total energy values
  at the end of a run (AFTER all relaxation, molecular dynamics, etc.).

  | Total energy of the DFT / Hartree-Fock s.c.f. calculation      :         -34767.889282252 eV
  | Final zero-broadening corrected energy (caution - metals only) :         -34767.889774594 eV
  | Total energy after non-SC SOC correction (DO NOT USE)          :         -34767.906296112 eV
  | For reference only, the value of 1 Hartree used in FHI-aims is :             27.211384500 eV
  | For reference only, the overall average (free atom contribution
  | + realspace contribution) of the electrostatic potential after
  | s.c.f. convergence is                                          :            -27.631565867 eV

  Before relying on these values, please be sure to understand exactly which
  total energy value is referred to by a given number. Different objects may
  all carry the same name 'total energy'. Definitions:

  Total energy of the DFT / Hartree-Fock s.c.f. calculation:
  | Note that this energy does not include ANY quantities calculated after the
  | s.c.f. cycle, in particular not ANY RPA, MP2, etc. many-body perturbation terms.

  Final zero-broadening corrected energy:
  | For metallic systems only, a broadening of the occupation numbers at the Fermi
  | level can be extrapolated back to zero broadening by an electron-gas inspired
  | formula. For all systems that are not real metals, this value can be
  | meaningless and should be avoided.

------------------------------------------------------------------------------
  Methods described in the following list of references were used in this FHI-aims run.
  If you publish the results, please make sure to cite these reference if they apply.
  FHI-aims is an academic code, and for our developers (often, Ph.D. students
  and postdocs), scientific credit in the community is essential.
  Thank you for helping us!

  For any use of FHI-aims, please cite:

    Volker Blum, Ralf Gehrke, Felix Hanke, Paula Havu, Ville Havu,
    Xinguo Ren, Karsten Reuter, and Matthias Scheffler
    'Ab initio molecular simulations with numeric atom-centered orbitals'
    Computer Physics Communications 180, 2175-2196 (2009)
    http://dx.doi.org/10.1016/j.cpc.2009.06.022


  The provided symmetry information was generated with SPGlib:

    Atsushi Togo, Yusuke Seto, Dimitar Pashov
    SPGlib 1.7.3 obtained from http://spglib.sourceforge.net
    Copyright (C) 2008 Atsushi Togo


  For second-variational spin-orbit coupling used in your run, please cite:

    William P. Huhn and Volker Blum,
    'One-hundred-three compound band-structure benchmark of post-self-consistent'
    'spin-orbit coupling treatments in density functional theory'
    Phys. Rev. Materials 1, 033803 (2017).


  The ELSI infrastructure was used in your run to solve the Kohn-Sham electronic structure.
  Please check out http://elsi-interchange.org to learn more.
  If scalability is important for your project, please acknowledge ELSI by citing:

    V. W-z. Yu, F. Corsetti, A. Garcia, W. P. Huhn, M. Jacquelin, W. Jia,
    B. Lange, L. Lin, J. Lu, W. Mi, A. Seifitokaldani, A. Vazquez-Mayagoitia,
    C. Yang, H. Yang, and V. Blum
    'ELSI: A unified software interface for Kohn-Sham electronic structure solvers'
    Computer Physics Communications 222, 267-285 (2018).
    http://dx.doi.org/10.1016/j.cpc.2017.09.007


  For the real-space grid partitioning and parallelization used in this calculation, please cite:

    Ville Havu, Volker Blum, Paula Havu, and Matthias Scheffler,
    'Efficient O(N) integration for all-electron electronic structure calculation'
    'using numerically tabulated basis functions'
    Journal of Computational Physics 228, 8367-8379 (2009).
    http://dx.doi.org/10.1016/j.jcp.2009.08.008

  Of course, there are many other important community references, e.g., those cited in the
  above references. Our list is limited to references that describe implementations in the
  FHI-aims code. The reason is purely practical (length of this list) - please credit others as well.

------------------------------------------------------------
          Leaving FHI-aims.
          Date     :  20201111, Time     :  143603.695

          Computational steps:
          | Number of self-consistency cycles          :           15
          | Number of SCF (re)initializations          :            1

          Detailed time accounting                     :  max(cpu_time)    wall_clock(cpu1)
          | Total time                                 :      229.578 s         238.131 s
          | Preparation time                           :        0.766 s           0.814 s
          | Boundary condition initalization           :        0.219 s           0.245 s
          | Grid partitioning                          :        0.062 s           0.068 s
          | Preloading free-atom quantities on grid    :        0.344 s           0.380 s
          | Free-atom superposition energy             :        0.031 s           0.038 s
          | Total time for integrations                :       47.953 s          49.314 s
          | Total time for solution of K.-S. equations :        5.453 s           5.522 s
          | Total time for density update              :       87.391 s          90.125 s
          | Total time for mixing & preconditioning    :        3.438 s           3.515 s
          | Total time for Hartree multipole update    :        0.031 s           0.037 s
          | Total time for Hartree multipole sum       :        3.344 s           3.359 s
          | Total time for total energy evaluation     :        0.000 s           0.014 s
          | Total time for scaled ZORA corrections     :        0.000 s           0.000 s
          | Total time for vdW correction              :        2.797 s           2.836 s
          | Total time for perturbative SOC            :       12.047 s          12.497 s
          | Total time for band structures, DOS        :       52.781 s          55.017 s
          | Total time for Mulliken analysis           :       13.750 s          14.232 s

          Partial memory accounting:
          | Residual value for overall tracked memory usage across tasks:     7.143555 MB (should be 0.000000 MB)
          |
          | Largest tracked array allocation:
          |   Minimum:       14.341 MB (hamiltonian_shell on task 0)
          |   Maximum:       14.741 MB (hamiltonian_shell on task 1)
          |   Average:       14.541 MB
          |
          | Because the residual tracked memory usage was not zero, the peak value for overall
          | tracked memory usage was not output, as it is probably incorrect.  This is likely due
          | to a missing aims_deallocate statement in the source code, which should be otherwise
          | harmless.
          |
          Note:  These values currently only include a subset of arrays which are explicitly tracked.
          The "true" memory usage will be greater.

          Have a nice day.
------------------------------------------------------------
