------------------------------------------------------------
          Invoking FHI-aims ...

          When using FHI-aims, please cite the following reference:

          Volker Blum, Ralf Gehrke, Felix Hanke, Paula Havu,
          Ville Havu, Xinguo Ren, Karsten Reuter, and Matthias Scheffler,
          'Ab Initio Molecular Simulations with Numeric Atom-Centered Orbitals',
          Computer Physics Communications 180, 2175-2196 (2009)

          For any questions about FHI-aims, please visit the aimsclub website
          with its forums and wiki. Contributions to both the forums and the
          wiki are warmly encouraged - they are for you, and everyone is welcome there.

------------------------------------------------------------



  Date     :  20200420, Time     :  204645.837
  Time zero on CPU 1             :   0.118147000000000E+00  s.
  Internal wall clock time zero  :           356647605.837  s.

  FHI-aims created a unique identifier for this run for later identification
  aims_uuid : 1C50E82C-E608-44DD-A892-46840BC028A4

  Build configuration of the current instance of FHI-aims
  -------------------------------------------------------
  FHI-aims version      : 200112
  Commit number         : 23daeca3f
  CMake host system     : Linux-3.10.0-693.21.1.el7.x86_64
  CMake version         : 3.13.3
  Fortran compiler      : /sw/installed/impi/2018.4.274-iccifort-2019.1.144-GCC-8.2.0-2.31.1/bin64/mpiifort (Intel) version 19.0.0.20181018
  Fortran compiler flags: -O3 -ip -fp-model precise
  C compiler            : /sw/installed/impi/2018.4.274-iccifort-2019.1.144-GCC-8.2.0-2.31.1/bin64/mpiicc (Intel) version 19.0.0.20181018
  C compiler flags      : -O3 -ip -fp-model precise
  Architecture          :
  Using MPI
  Using Scalapack
  Using C files
  Using LibXC
  Using SPGlib
  Using i-PI
  Using RLSY
  Linking against: /sw/installed/imkl/2019.1.144-iimpi-2019a/mkl/lib/intel64/libmkl_intel_lp64.so
                   /sw/installed/imkl/2019.1.144-iimpi-2019a/mkl/lib/intel64/libmkl_sequential.so
                   /sw/installed/imkl/2019.1.144-iimpi-2019a/mkl/lib/intel64/libmkl_core.so
                   /sw/installed/imkl/2019.1.144-iimpi-2019a/mkl/lib/intel64/libmkl_blacs_intelmpi_lp64.so
                   /sw/installed/imkl/2019.1.144-iimpi-2019a/mkl/lib/intel64/libmkl_scalapack_lp64.so

  Using       24 parallel tasks.
  Task        0 on host taurusi6394.taurus.hrsk.tu-dresden.de reporting.
  Task        1 on host taurusi6394.taurus.hrsk.tu-dresden.de reporting.
  Task        2 on host taurusi6394.taurus.hrsk.tu-dresden.de reporting.
  Task        3 on host taurusi6394.taurus.hrsk.tu-dresden.de reporting.
  Task        4 on host taurusi6394.taurus.hrsk.tu-dresden.de reporting.
  Task        5 on host taurusi6394.taurus.hrsk.tu-dresden.de reporting.
  Task        6 on host taurusi6394.taurus.hrsk.tu-dresden.de reporting.
  Task        7 on host taurusi6394.taurus.hrsk.tu-dresden.de reporting.
  Task        8 on host taurusi6394.taurus.hrsk.tu-dresden.de reporting.
  Task        9 on host taurusi6394.taurus.hrsk.tu-dresden.de reporting.
  Task       10 on host taurusi6394.taurus.hrsk.tu-dresden.de reporting.
  Task       11 on host taurusi6394.taurus.hrsk.tu-dresden.de reporting.
  Task       12 on host taurusi6394.taurus.hrsk.tu-dresden.de reporting.
  Task       13 on host taurusi6394.taurus.hrsk.tu-dresden.de reporting.
  Task       14 on host taurusi6394.taurus.hrsk.tu-dresden.de reporting.
  Task       15 on host taurusi6394.taurus.hrsk.tu-dresden.de reporting.
  Task       16 on host taurusi6394.taurus.hrsk.tu-dresden.de reporting.
  Task       17 on host taurusi6394.taurus.hrsk.tu-dresden.de reporting.
  Task       18 on host taurusi6394.taurus.hrsk.tu-dresden.de reporting.
  Task       19 on host taurusi6394.taurus.hrsk.tu-dresden.de reporting.
  Task       20 on host taurusi6394.taurus.hrsk.tu-dresden.de reporting.
  Task       21 on host taurusi6394.taurus.hrsk.tu-dresden.de reporting.
  Task       22 on host taurusi6394.taurus.hrsk.tu-dresden.de reporting.
  Task       23 on host taurusi6394.taurus.hrsk.tu-dresden.de reporting.

  Performing system and environment tests:
  | Environment variable OMP_NUM_THREADS correctly set to 1.
  | Maximum stacksize for task 0: unlimited
  | Maximum stacksize for task 1: unlimited
  | Maximum stacksize for task 2: unlimited
  | Maximum stacksize for task 3: unlimited
  | Maximum stacksize for task 4: unlimited
  | Maximum stacksize for task 5: unlimited
  | Maximum stacksize for task 6: unlimited
  | Maximum stacksize for task 7: unlimited
  | Maximum stacksize for task 8: unlimited
  | Maximum stacksize for task 9: unlimited
  | Maximum stacksize for task 10: unlimited
  | Maximum stacksize for task 11: unlimited
  | Maximum stacksize for task 12: unlimited
  | Maximum stacksize for task 13: unlimited
  | Maximum stacksize for task 14: unlimited
  | Maximum stacksize for task 15: unlimited
  | Maximum stacksize for task 16: unlimited
  | Maximum stacksize for task 17: unlimited
  | Maximum stacksize for task 18: unlimited
  | Maximum stacksize for task 19: unlimited
  | Maximum stacksize for task 20: unlimited
  | Maximum stacksize for task 21: unlimited
  | Maximum stacksize for task 22: unlimited
  | Maximum stacksize for task 23: unlimited
  | Current stacksize for task 0: unlimited
  | Current stacksize for task 1: unlimited
  | Current stacksize for task 2: unlimited
  | Current stacksize for task 3: unlimited
  | Current stacksize for task 4: unlimited
  | Current stacksize for task 5: unlimited
  | Current stacksize for task 6: unlimited
  | Current stacksize for task 7: unlimited
  | Current stacksize for task 8: unlimited
  | Current stacksize for task 9: unlimited
  | Current stacksize for task 10: unlimited
  | Current stacksize for task 11: unlimited
  | Current stacksize for task 12: unlimited
  | Current stacksize for task 13: unlimited
  | Current stacksize for task 14: unlimited
  | Current stacksize for task 15: unlimited
  | Current stacksize for task 16: unlimited
  | Current stacksize for task 17: unlimited
  | Current stacksize for task 18: unlimited
  | Current stacksize for task 19: unlimited
  | Current stacksize for task 20: unlimited
  | Current stacksize for task 21: unlimited
  | Current stacksize for task 22: unlimited
  | Current stacksize for task 23: unlimited
  | Checking for scalapack...
  | Testing pdtran()...
  | All pdtran() tests passed.

  Obtaining array dimensions for all initial allocations:
  
  -----------------------------------------------------------------------
  Parsing control.in (first pass over file, find array dimensions only).
  The contents of control.in will be repeated verbatim below
  unless switched off by setting 'verbatim_writeout .false.' .
  in the first line of control.in .
  -----------------------------------------------------------------------
  
  #===============================================================================
  # FHI-aims file: ./control.in
  # Created using the Atomic Simulation Environment (ASE)
  # Thu Apr  2 11:27:09 2020
  #===============================================================================
  xc                                 pbe
  # include_spin_orbit
  # vdw_correction_hirshfeld
  many_body_dispersion
  spin                               none
  k_grid 	 	 23 23 19
  relativistic                       atomic_zora scalar
  energy_tolerance 1e-2
  harmonic_length_scale  0.015
  ### SCF settings
  adjust_scf 	 always 	 3
  # frozen_core_scf 	 .true.
  # charge_mix_param  0.05
  # occupation_type 	 gaussian 	 0.01
  # sc_accuracy_eev   1E-3 	 	 # sum of eigenvalues convergence
  # sc_accuracy_etot  1E-6 	 	 # total energy convergence
  # sc_accuracy_rho   1E-3 	 	 # electron density convergence
  # elsi_restart 	 read_and_write 	 1000
  ### geometry optimisation section
  relax_geometry 	 bfgs 	 1E-2
  relax_unit_cell 	 full
  #===============================================================================
  
  ################################################################################
  #
  #  FHI-aims code project
  # Volker Blum, Fritz Haber Institute Berlin, 2009
  #
  #  Suggested "tight" defaults for Pd atom (to be pasted into control.in file)
  #
  ################################################################################
    species        Pd
  #     global species definitions
      nucleus             46
      mass                106.42
  #
      l_hartree           6
  #
      cut_pot             4.0  2.0  1.0
      basis_dep_cutoff    1e-4
  #
      radial_base         62 7.0
      radial_multiplier   2
      angular_grids specified
        division   0.3627   50
        division   0.7349  110
        division   1.0624  194
        division   1.2496  302
        division   1.6740  434
  #      division   2.0126  590
  #      division   2.0830  770
  #      division   2.7936 1202
  #       outer_grid  974
        outer_grid  434
  ################################################################################
  #
  #  Definition of "minimal" basis
  #
  ################################################################################
  #     valence basis states
      valence      5  s   1.
      valence      4  p   6.
      valence      4  d   9.
  #     ion occupancy
      ion_occ     5  s   0.
      ion_occ     4  p   6.
      ion_occ     4  d   8.
  ################################################################################
  #
  #  Suggested additional basis functions. For production calculations,
  #  uncomment them one after another (the most important basis functions are
  #  listed first).
  #
  #  Constructed for dimers: 2.0 A, 2.275 A, 2.75 A, 3.75 A
  #
  ################################################################################
  #  "First tier" - max. impr. -120.76  meV, min. impr. -5.71 meV
       ionic 5 p auto
       hydro 4 f 8
       hydro 5 g 10
       hydro 3 s 2.6
       hydro 3 d 2.5
  #  "Second tier" - max. impr. -5.00  meV, min. impr. -0.62 meV
  #     hydro 5 f 17.2
  #     hydro 6 h 14
  #     hydro 4 d 4
  #     hydro 5 f 7.6
  #     hydro 3 p 3.3
  #     hydro 4 s 9.4
  #  "Third tier" - max. impr. -0.54  meV, min. impr. -0.14 meV
  #     hydro 4 f 20
  #     hydro 5 g 12.8
  #     hydro 5 d 9.8
  #     hydro 6 h 15.2
  #     hydro 5 s 10
  #     hydro 6 p 9.8
  #  "Fourth tier" - max. impr. -0.15  meV, min. impr. -0.05 meV
  #     hydro 5 f 9.2
  #     hydro 2 s 5.6
  #     hydro 5 f 43.2
  #     hydro 5 d 13.2
  #     hydro 5 g 14
  #     hydro 4 p 4.7
  ################################################################################
  #
  #  FHI-aims code project
  # Volker Blum, Fritz Haber Institute Berlin, 2009
  #
  #  Suggested "tight" defaults for Se atom (to be pasted into control.in file)
  #
  ################################################################################
    species        Se
  #     global species definitions
      nucleus             34
      mass                78.96
  #
      l_hartree           6
  #
      cut_pot             4.0          2.0  1.0
      basis_dep_cutoff    1e-4
  #
      radial_base         55 7.0
      radial_multiplier   2
      angular_grids       specified
        division   0.0830  110
        division   0.1357  194
        division   0.7377  302
        division   0.8610  434
  #      division   0.9640  590
  #      division   1.0773  770
  #      division   2.5539  974
  #      outer_grid  974
        outer_grid  434
  ################################################################################
  #
  #  Definition of "minimal" basis
  #
  ################################################################################
  #     valence basis states
      valence      4  s   2.
      valence      4  p   4.
      valence      3  d  10.
  #     ion occupancy
      ion_occ      4  s   1.
      ion_occ      4  p   3.
      ion_occ      3  d  10.
  ################################################################################
  #
  #  Suggested additional basis functions. For production calculations,
  #  uncomment them one after another (the most important basis functions are
  #  listed first).
  #
  #  Constructed for dimers: 1.85 A, 2.15 A, 2.50 A, 3.00 A, 4.00 A
  #
  ################################################################################
  #  "First tier" - improvements: -336.21 meV to -36.85 meV
       hydro 3 d 4.3
       hydro 2 p 1.6
       hydro 4 f 7.2
       ionic 4 s auto
  #  "Second tier" - improvements: -14.39 meV to -1.49 meV
  #     hydro 5 g 10.4
  #     hydro 4 p 4.5
  #     hydro 4 d 6.2
  #     hydro 4 f 11.2
  #     hydro 1 s 0.65
  #     hydro 6 h 15.2
  #  "Third tier" - improvements: -0.46 meV and below
  #     hydro 5 g 14.4
  #     ionic 4 d auto
  #     hydro 4 f 22.4
  #     hydro 5 f 7.4
  #     hydro 5 p 8
  #     hydro 5 s 9.4
  #  "Fourth tier" - improvements: -0.12 meV and below
  #     hydro 5 d 11.6
  #     hydro 6 h 18
  #     hydro 4 p 4
  #     hydro 5 f 16
  #     hydro 4 s 3.9
  #
  #
  
  -----------------------------------------------------------------------
  Completed first pass over input file control.in .
  -----------------------------------------------------------------------
  
  
  -----------------------------------------------------------------------
  Parsing geometry.in (first pass over file, find array dimensions only).
  The contents of geometry.in will be repeated verbatim below
  unless switched off by setting 'verbatim_writeout .false.' .
  in the first line of geometry.in .
  -----------------------------------------------------------------------
  
  #
  # This is the geometry file that corresponds to the current relaxation step.
  # If you do not want this file to be written, set the "write_restart_geometry" flag to .false.
  #  aims_uuid : 99A17247-9DE3-4693-ACE3-1DF2AF067AFA
  #
  lattice_vector      5.85470036      0.00000000      0.00000000
  lattice_vector      0.00000000      5.95902409      0.00000000
  lattice_vector      0.00000000      0.00000000      7.43194529
  atom_frac       0.50242449      0.00208993      0.00193111 Pd
  atom_frac       0.00207455      0.00208615      0.50265262 Pd
  atom_frac       0.00215552      0.50245776      0.00197658 Pd
  atom_frac       0.50250432      0.50245358      0.50260732 Pd
  atom_frac       0.61430367      0.12007492      0.40432073 Se
  atom_frac       0.89103354      0.88488102      0.90453681 Se
  atom_frac       0.11391169      0.38455047      0.60074810 Se
  atom_frac       0.39062582      0.62040895      0.10025869 Se
  atom_frac       0.39066729      0.88491184      0.60074809 Se
  atom_frac       0.11394062      0.12008208      0.10027705 Se
  atom_frac       0.89100518      0.62040982      0.40432199 Se
  atom_frac       0.61428682      0.38452699      0.90455441 Se
  #
  # What follows is the current estimated Hessian matrix constructed by the BFGS algorithm.
  # This is NOT the true Hessian matrix of the system.
  # If you do not want this information here, switch it off using the "hessian_to_restart_geometry" keyword.
  #
  trust_radius             0.0122098505
  hessian_block                1       1           5.969014           0.062060          -2.202137           0.062060           6.38295
  hessian_block                1       2          -0.037900           0.453019           0.035743           0.296410           0.21603
  hessian_block                1       3          -0.067620           0.492681           0.034011          -0.041927          -0.14018
  hessian_block                1       4           0.514902           0.195171          -0.087829           0.109358          -0.45755
  hessian_block                1       5          -0.032728          -0.429184          -0.194335          -0.362524           0.30231
  hessian_block                1       6          -1.766517          -0.045400           0.592849           0.425374          -0.40382
  hessian_block                1       7          -0.387487           0.328815           0.276793           0.122394           0.17007
  hessian_block                1       8          -0.219265          -0.495365           0.343444          -0.354806          -1.88333
  hessian_block                1       9          -0.135727           0.021203           0.193145          -0.388160          -0.44173
  hessian_block                1      10          -2.322964           0.859143           1.076948           0.052247          -0.44101
  hessian_block                1      11           0.081600          -0.571002          -0.228248           0.228187           0.22930
  hessian_block                1      12          -0.029395          -0.871146           0.159617          -0.148613          -1.88601
  hessian_block                2       2           6.041438           0.336983           2.315231           0.336983           7.26465
  hessian_block                2       3           0.857962           0.837774           0.460877          -0.441505          -0.51544
  hessian_block                2       4           0.201977           0.616793           0.175837          -0.477319           0.64536
  hessian_block                2       5          -2.082925           0.023826          -0.989862           0.471116          -0.66861
  hessian_block                2       6          -0.510601          -0.106792           0.096566          -0.269517          -0.87824
  hessian_block                2       7          -0.008363          -0.671540          -0.369613          -0.457448          -1.59078
  hessian_block                2       8          -0.220435          -0.594633          -0.331434           0.090257          -0.37637
  hessian_block                2       9          -2.028531           0.394450          -0.953513           0.590929          -0.83975
  hessian_block                2      10           0.499512          -0.102196           0.024705           0.214017           0.93526
  hessian_block                2      11          -0.560234          -0.694832          -0.180515          -0.463126          -3.19280
  hessian_block                2      12          -0.585992          -0.336240          -0.209793          -0.047408           0.64774
  hessian_block                3       3           6.541897          -0.563243           2.394921          -0.563243           6.30951
  hessian_block                3       4           0.336932          -0.273786          -0.047268          -0.260250           0.10291
  hessian_block                3       5          -0.587758           0.157420          -0.307072          -0.228842           0.43142
  hessian_block                3       6          -0.723455           0.484302          -0.502063           0.003690          -1.73858
  hessian_block                3       7           0.088865           0.107926           0.223332           0.196756          -0.10339
  hessian_block                3       8          -2.164763          -0.196374          -0.844375          -0.678929          -0.30529
  hessian_block                3       9          -0.281182           0.342193           0.138327          -0.020567          -0.16313
  hessian_block                3      10           0.471090           0.490646           0.182071           1.138498          -2.21799
  hessian_block                3      11          -0.417538           0.110710          -0.178592          -0.533687           0.26477
  hessian_block                3      12          -2.488518          -0.176359          -1.052644          -0.383880          -0.27757
  hessian_block                4       4           5.956907           0.174192          -1.957554           0.174192           6.96037
  hessian_block                4       5          -0.484386           0.608517           0.200314           0.080908          -2.24726
  hessian_block                4       6          -0.024068           0.431189           0.124068          -0.235453          -0.44924
  hessian_block                4       7          -2.022981          -0.902639           0.697564          -0.176442          -0.17086
  hessian_block                4       8          -0.296874          -0.254386          -0.195722           0.032148          -0.49130
  hessian_block                4       9          -0.276823           0.661416           0.152179           0.146559          -2.23868
  hessian_block                4      10          -0.437408          -0.400123          -0.152970          -0.151714           0.85062
  hessian_block                4      11          -1.807154          -0.056538           0.864581          -0.845645          -1.33098
  hessian_block                4      12          -0.095112           0.366577          -0.036269           0.437266           0.47365
  hessian_block                5       5           5.356983          -0.406322          -1.189918          -0.406322           6.26376
  hessian_block                5       6           0.268820          -0.373048          -0.403318           0.191877          -0.16346
  hessian_block                5       7          -0.395196           1.135452           0.043849          -0.913580           0.05916
  hessian_block                5       8           0.131221           0.228611           0.438036           0.503336          -0.02879
  hessian_block                5       9          -1.356127          -0.380765           1.701600          -0.374048          -1.87148
  hessian_block                5      10          -0.159024           0.544907           0.465650           0.012876          -0.01464
  hessian_block                5      11           0.530992          -0.903637           0.032306           1.055422           0.14547
  hessian_block                5      12           0.376038           0.194145          -0.483309          -0.430142          -0.56083
  hessian_block                6       6           5.666862           0.384675           1.813507           0.384675           5.71737
  hessian_block                6       7          -0.029961          -0.132649          -0.069806           0.462751           0.19035
  hessian_block                6       8          -0.143435           0.363828           0.142652           0.130218           0.21585
  hessian_block                6       9           0.080654           0.124491           0.007023           0.271856           0.77622
  hessian_block                6      10          -1.950320          -1.280902          -2.826627          -1.018684          -1.96910
  hessian_block                6      11           0.211329           0.315856          -0.123583          -0.714252           0.52932
  hessian_block                6      12           0.486602           0.108731           0.289531           0.093186          -0.17963
  hessian_block                7       7           5.468736           0.491074           1.119166           0.491074           6.11312
  hessian_block                7       8          -0.000281          -0.124960           0.053021           0.037821          -0.41232
  hessian_block                7       9           0.390311           0.590012          -0.246409          -0.687373          -0.39751
  hessian_block                7      10           0.288661          -0.610561          -0.179313           0.098521          -0.36351
  hessian_block                7      11          -1.871936           0.462083          -1.702878           0.651864          -2.36586
  hessian_block                7      12           0.045544          -0.042079           0.493619          -0.457272           0.51855
  hessian_block                8       8           4.771973           0.095950          -0.914984           0.095950           5.65023
  hessian_block                8       9           0.241364          -0.503511          -0.200392           0.147264           0.16340
  hessian_block                8      10           0.091148          -0.213514           0.247745          -0.614955          -0.47420
  hessian_block                8      11           0.144881          -0.164175          -0.173748           0.615063           1.15250
  hessian_block                8      12          -0.769625           1.025206           1.706409           0.829958          -1.56333
  hessian_block                9       9           5.034804          -0.549139          -0.799475          -0.549139           6.47110
  hessian_block                9      10          -0.031931           0.224125          -0.161621          -0.202492          -0.09093
  hessian_block                9      11          -0.196836           0.869750          -0.125417          -0.705166           0.50802
  hessian_block                9      12           0.125939          -0.231197           0.662117           0.207309          -0.22849
  hessian_block               10      10           5.852425           0.575428           1.664324           0.575428           6.82316
  hessian_block               10      11          -0.161180           0.032200           0.400801           0.356529          -1.35538
  hessian_block               10      12          -0.574097          -0.135944          -0.175128          -0.443483          -0.03525
  hessian_block               11      11           5.477397           0.304178           0.850174           0.304178           7.92778
  hessian_block               11      12           0.134590           0.050635          -0.452847           0.295405          -0.86514
  hessian_block               12      12           4.939938           0.047674          -0.901302           0.047674           5.60335
  hessian_block_lv             1       1          22.956305          -4.006341           4.732700          -4.006341          23.28299
  hessian_block_lv_atom        1       1           0.259488           0.393854           0.058518          -0.332396          -0.54588
  hessian_block_lv_atom        1       2          -0.461204          -0.820286          -0.200430           0.154900          -0.19546
  hessian_block_lv_atom        1       3          -0.548686          -0.947233          -0.238255           0.263238           0.47395
  hessian_block_lv_atom        1       4           0.093030           0.111932          -0.004984           0.700271           0.76062
  hessian_block_lv_atom        1       5           0.273213           0.424122           0.367353           0.157376           0.00477
  hessian_block_lv_atom        1       6           0.084587          -0.118507          -0.293817          -0.460552          -0.21806
  hessian_block_lv_atom        1       7          -0.529852          -0.807774           0.120630          -0.673818          -0.95442
  hessian_block_lv_atom        1       8          -0.050124           0.181190          -0.244696           0.072201           0.24172
  hessian_block_lv_atom        1       9           0.103731           0.197273          -0.209252          -0.618971          -0.44000
  hessian_block_lv_atom        1      10          -0.253547           0.014359           0.306133           0.448353           0.07372
  hessian_block_lv_atom        1      11           0.524078           0.901673          -0.072387           0.281539           0.82467
  hessian_block_lv_atom        1      12           0.505291           0.469397           0.411188           0.007857          -0.02563
  symmetry_n_params 39 3 36
  symmetry_params a1 b2 c3 x0 x1 x2 x3 x4 x5 x6 x7 x8 x9 x10 x11 x12 x13 x14 x15 x16 x17 x18 x19 x20 x21 x22 x23 x24 x25 x26 x27 x28 x
  symmetry_lv a1 , 0 , 0
  symmetry_lv 0 , b2 , 0
  symmetry_lv 0 , 0 , c3
  symmetry_frac x0 , x1 , x2
  symmetry_frac x3 , x4 , x5
  symmetry_frac x6 , x7 , x8
  symmetry_frac x9 , x10 , x11
  symmetry_frac x12 , x13 , x14
  symmetry_frac x15 , x16 , x17
  symmetry_frac x18 , x19 , x20
  symmetry_frac x21 , x22 , x23
  symmetry_frac x24 , x25 , x26
  symmetry_frac x27 , x28 , x29
  symmetry_frac x30 , x31 , x32
  symmetry_frac x33 , x34 , x35
  
  -----------------------------------------------------------------------
  Completed first pass over input file geometry.in .
  -----------------------------------------------------------------------
  

  Basic array size parameters:
  | Number of species                 :        2
  | Number of atoms                   :       12
  | Number of lattice vectors         :        3
  | Max. basis fn. angular momentum   :        4
  | Max. atomic/ionic basis occupied n:        5
  | Max. number of basis fn. types    :        3
  | Max. radial fns per species/type  :       10
  | Max. logarithmic grid size        :     1444
  | Max. radial integration grid size :      125
  | Max. angular integration grid size:      434
  | Max. angular grid division number :        8
  | Radial grid for Hartree potential :     1444
  | Number of spin channels           :        1

------------------------------------------------------------
          Reading file control.in.
------------------------------------------------------------
  XC: Using PBE gradient-corrected functionals.
  Using libMBD for calculating MBD and TS energies
  Spin treatment: No spin polarisation.
  Found k-point grid:        23        23        19
  Scalar relativistic treatment of kinetic energy: on-site free-atom approximation to ZORA.
  Max energy increase before discarding BFGS move:   0.100000E-01 eV
  Assuming qualitatively harmonic for steps shorter than   0.150000E-01 A.
  S.C.F. convergence parameters will be adjusted in iteration number     3 of each new s.c.f. cycle.
  Geometry relaxation: Modified BFGS - TRM (trust radius method) for lattice optimization.
  Convergence accuracy for geometry relaxation: Maximum force <   0.100000E-01 eV/A.
 
  Reading configuration options for species Pd                  .
  | Found nuclear charge :  46.0000
  | Found atomic mass :    106.420000000000      amu
  | Found l_max for Hartree potential  :   6
  | Found cutoff potl. onset [A], width [A], scale factor :    4.00000    2.00000    1.00000
  | Threshold for basis-dependent cutoff potential is   0.100000E-03
  | Found data for basic radial integration grid :    62 points, outermost radius =    7.000 A
  | Found multiplier for basic radial grid :   2
  | Found angular grid specification: user-specified.
  | Specified grid contains     6 separate shells.
  | Check grid settings after all constraints further below.
  | Found free-atom valence shell :  5 s   1.000
  | Found free-atom valence shell :  4 p   6.000
  | Found free-atom valence shell :  4 d   9.000
  | Found free-ion valence shell :  5 s   0.000
  | Found free-ion valence shell :  4 p   6.000
  | Found free-ion valence shell :  4 d   8.000
  | Found ionic basis function :  5 p , default cutoff radius.
  | Found hydrogenic basis function :  4 f   8.000
  | Found hydrogenic basis function :  5 g  10.000
  | Found hydrogenic basis function :  3 s   2.600
  | Found hydrogenic basis function :  3 d   2.500
  Species Pd                  : Missing cutoff potential type.
  Defaulting to exp(1/x)/(1-x)^2 type cutoff potential.
  Species Pd: No 'logarithmic' tag. Using default grid for free atom:
  | Default logarithmic grid data [bohr] : 0.1000E-03 0.1000E+03 0.1012E+01
  | Will include ionic basis functions of  2.0-fold positive Pd                   ion.
  Species Pd: On-site basis accuracy parameter (for Gram-Schmidt orthonormalisation) not specified.
  Using default value basis_acc =  0.1000000E-03.
  Species Pd                  : Using default innermost maximum threshold i_radial=  2 for radial functions.
  Species Pd                  : Default cutoff onset for free atom density etc. : 0.40000000E+01 AA.
  Species Pd                  : Basic radial grid will be enhanced according to radial_multiplier =   2, to contain   125 grid points.
 
  Reading configuration options for species Se                  .
  | Found nuclear charge :  34.0000
  | Found atomic mass :    78.9600000000000      amu
  | Found l_max for Hartree potential  :   6
  | Found cutoff potl. onset [A], width [A], scale factor :    4.00000    2.00000    1.00000
  | Threshold for basis-dependent cutoff potential is   0.100000E-03
  | Found data for basic radial integration grid :    55 points, outermost radius =    7.000 A
  | Found multiplier for basic radial grid :   2
  | Found angular grid specification: user-specified.
  | Specified grid contains     5 separate shells.
  | Check grid settings after all constraints further below.
  | Found free-atom valence shell :  4 s   2.000
  | Found free-atom valence shell :  4 p   4.000
  | Found free-atom valence shell :  3 d  10.000
  | Found free-ion valence shell :  4 s   1.000
  | Found free-ion valence shell :  4 p   3.000
  | Found free-ion valence shell :  3 d  10.000
  | Found hydrogenic basis function :  3 d   4.300
  | Found hydrogenic basis function :  2 p   1.600
  | Found hydrogenic basis function :  4 f   7.200
  | Found ionic basis function :  4 s , default cutoff radius.
  Species Se                  : Missing cutoff potential type.
  Defaulting to exp(1/x)/(1-x)^2 type cutoff potential.
  Species Se: No 'logarithmic' tag. Using default grid for free atom:
  | Default logarithmic grid data [bohr] : 0.1000E-03 0.1000E+03 0.1012E+01
  | Will include ionic basis functions of  2.0-fold positive Se                   ion.
  Species Se: On-site basis accuracy parameter (for Gram-Schmidt orthonormalisation) not specified.
  Using default value basis_acc =  0.1000000E-03.
  Species Se                  : Using default innermost maximum threshold i_radial=  2 for radial functions.
  Species Se                  : Default cutoff onset for free atom density etc. : 0.40000000E+01 AA.
  Species Se                  : Basic radial grid will be enhanced according to radial_multiplier =   2, to contain   111 grid points.
 
  Finished reading input file 'control.in'. Consistency checks are next.
 
  MPI_IN_PLACE appears to work with this MPI implementation.
  | Keeping use_mpi_in_place .true. (see manual).
  Target number of points in a grid batch is not set. Defaulting to  100
  Method for grid partitioning is not set. Defaulting to parallel hash+maxmin partitioning.
  Batch size limit is not set. Defaulting to    200
  By default, will store active basis functions for each batch.
  If in need of memory, prune_basis_once .false. can be used to disable this option.
  communication_type for Hartree potential was not specified.
  Defaulting to calc_hartree .
  Defaulting to Pulay charge density mixer.
  Pulay mixer: Number of relevant iterations not set.
  Defaulting to    8 iterations.
  Pulay mixer: Number of initial linear mixing iterations not set.
  Defaulting to    0 iterations.
  Work space size for distributed Hartree potential not set.
  Defaulting to   0.200000E+03 MB.
  Mixing parameter for charge density mixing has not been set.
  Using default: charge_mix_param =     0.0500.
  The mixing parameter will be adjusted in iteration number     3 of each s.c.f. cycle (i.e., each geometry step).
  Algorithm-dependent basis array size parameters:
  | n_max_pulay                         :        8
  Maximum number of self-consistency iterations not provided.
  Presetting  1000 iterations.
  Presetting      1001 iterations before the initial mixing cycle
  is restarted anyway using the sc_init_iter criterion / keyword.
  Presetting a factor      1.000 between actual scf density residual
  and density convergence criterion sc_accuracy_rho below which sc_init_iter
  takes no effect.
 * No s.c.f. convergence criteria (sc_accuracy_*) were provided in control.in.
 * The run will proceed with a reasonable default guess, but please check whether.
 * the s.c.f. cycles seem to take too much or too little time.
  No maximum number of relaxation steps, defaulting to     1000
  Using explicit Hessian from geometry.in.
  Maximum energy tolerance by which TRM/BFGS trajectory may increase over multiple steps:   0.300000E-02
  No trust radius initializer. Defaulting to   0.200000E+00 A.
  Unit cell relaxation: Unit cell will be relaxed fully.
  Unit cell relaxation: Analytical stress will be used.
  Analytical stress will be computed.
  Analytical stress calculation: Only the upper triangle is calculated.
                                 Final output is symmetrized.
  Analytical stress calculation: scf convergence accuracy of stress not set.
                                 Analytical stress self-consistency will not be checked explicitly.
                                 Be sure to set other criteria like sc_accuracy_rho tight enough.
 * Notice: The s.c.f. convergence criterion sc_accuracy_rho was not provided.
 * We used to stop in this case, and ask the user to provide reasonable
 * scf convergence criteria. However, this led some users to employ criteria
 * that led to extremely long run times, e.g., for simple relaxation.
 * We now preset a default value for sc_accuracy_rho if it is not set.
 * You may still wish to check if this setting is too tight or too loose for your needs.
 * Based on n_atoms, FHI-aims chose sc_accuracy_rho =  0.141421E-05 .
  Force calculation: scf convergence accuracy of forces not set.
  Defaulting to 'sc_accuracy_forces not_checked'.
  Handling of forces: Unphysical translation and rotation will be removed from forces.
  No accuracy limit for integral partition fn. given. Defaulting to  0.1000E-14.
  No threshold value for u(r) in integrations given. Defaulting to  0.1000E-05.
  No occupation type (smearing scheme) given. Defaulting to Gaussian broadening, width =  0.1000E-01 eV.
  The width will be adjusted in iteration number     3 of each s.c.f. cycle (i.e., each geometry step).
  S.C.F. convergence parameters will be adjusted in iteration number     3 of the first full s.c.f. cycle only.
  No accuracy for occupation numbers given. Defaulting to  0.1000E-12.
  No threshold value for occupation numbers given. Defaulting to  0.0000E+00.
  No accuracy for fermi level given. Defaulting to  0.1000E-19.
  Maximum # of iterations to find E_F not set. Defaulting to  200.
  Preferred method for the eigenvalue solver ('KS_method') not specified in 'control.in'.
  Defaulting to serial version, LAPACK (via ELSI), since more k-points than CPUs available.
  Will not use alltoall communication since running on < 1024 CPUs.
  Threshold for basis singularities not set.
  Default threshold for basis singularities:  0.1000E-04
  partition_type (choice of integration weights) for integrals was not specified.
  | Using a version of the partition function of Stratmann and coworkers ('stratmann_sparse').
  | At each grid point, the set of atoms used to build the partition table is smoothly restricted to
  | only those atoms whose free-atom density would be non-zero at that grid point.
  Partitioning for Hartree potential was not defined. Using partition_type for integrals.
  | Adjusted default value of keyword multip_moments_threshold to:       0.10000000E-11
  | This value may affect high angular momentum components of the Hartree potential in periodic systems.
  Angular momentum expansion for Kerker preconditioner not set explicitly.
  | Using default value of   0
  No explicit requirement for turning off preconditioner.
  | By default, it will be turned off when the charge convergence reaches
  | sc_accuracy_rho  =   0.141421E-05
  No special mixing parameter while Kerker preconditioner is on.
  Using default: charge_mix_param =     0.0500.
  No q(lm)/r^(l+1) cutoff set for long-range Hartree potential.
  | Using default value of  0.100000E-09 .
  | Verify using the multipole_threshold keyword.
  Defaulting to new monopole extrapolation.
  Density update method: automatic selection selected.
  Using density matrix based charge density update.
  Using density matrix based charge density update.
  Using packed matrix style: index .
  Geometry relaxation: A file "geometry.in.next_step" is written out by default after each step.
  | This file contains the geometry of the current relaxation step as well as
  | the current Hessian matrix needed to restart the relaxation algorithm.
  | If you do not want part or all of this information, use the keywords
  | "write_restart_geometry" or "hessian_to_restart_geometry" to switch the output off.
  Defaulting to use time-reversal symmetry for k-point grid.
  Charge integration errors on the 3D integration grid will be compensated
  by explicit normalization and distribution of residual charges.
  Use the "compensate_multipole_errors" flag to change this behaviour.
------------------------------------------------------------


------------------------------------------------------------
          Reading geometry description geometry.in.
------------------------------------------------------------
  Input structure read successfully.
  The structure contains       12 atoms,  and a total of        456.000 electrons.

  Input geometry:
  | Unit cell:
  |        5.85470036        0.00000000        0.00000000
  |        0.00000000        5.95902409        0.00000000
  |        0.00000000        0.00000000        7.43194529
  | Atomic structure:
  |       Atom                x [A]            y [A]            z [A]
  |    1: Species Pd            2.94154484        0.01245394        0.01435190
  |    2: Species Pd            0.01214587        0.01243142        3.73568677
  |    3: Species Pd            0.01261992        2.99415790        0.01468983
  |    4: Species Pd            2.94201222        2.99413299        3.73535010
  |    5: Species Se            3.59656392        0.71552934        3.00488954
  |    6: Species Se            5.21673439        5.27302731        6.72246808
  |    7: Species Se            0.66691881        2.29154551        4.46472701
  |    8: Species Se            2.28699713        3.69703188        0.74511710
  |    9: Species Se            2.28723992        5.27321097        4.46472694
  |   10: Species Se            0.66708819        0.71557201        0.74525355
  |   11: Species Se            5.21656835        3.69703706        3.00489891
  |   12: Species Se            3.59646527        2.29140560        6.72259889

  Lattice parameters for 3D lattice (in Angstroms) :     5.854700    5.959024    7.431945
  Angle(s) between unit vectors (in degrees)       :    90.000000   90.000000   90.000000

  | The smallest distance between any two atoms is         2.40495384 AA.
  | The first atom of this pair is atom number                      6 .
  | The second atom of this pair is atom number                    10 .
  | Wigner-Seitz cell of the first atom image           0     0     0 .
  | (The Wigner-Seitz cell of the second atom is 0 0 0  by definition.)

  Symmetry information by spglib:
  | Precision set to  0.1E-04
  | Number of Operations  : 1
  | Space group           : 1
  | International         : P1 l     H
  | Schoenflies           : C1^1

  Quantities derived from the lattice vectors:
  | Reciprocal lattice vector 1:  1.073186  0.000000  0.000000
  | Reciprocal lattice vector 2:  0.000000  1.054398  0.000000
  | Reciprocal lattice vector 3:  0.000000  0.000000  0.845429
  | Unit cell volume                               :   0.259288E+03  A^3

  Range separation radius for Ewald summation (hartree_convergence_parameter):      3.99883967 bohr.

  Fractional coordinates:
                         L1                L2                L3
       atom_frac         0.50242449        0.00208993        0.00193111  Pd
       atom_frac         0.00207455        0.00208615        0.50265262  Pd
       atom_frac         0.00215552        0.50245776        0.00197658  Pd
       atom_frac         0.50250432        0.50245358        0.50260732  Pd
       atom_frac         0.61430367        0.12007492        0.40432073  Se
       atom_frac         0.89103354        0.88488102        0.90453681  Se
       atom_frac         0.11391169        0.38455047        0.60074810  Se
       atom_frac         0.39062582        0.62040895        0.10025869  Se
       atom_frac         0.39066729        0.88491184        0.60074809  Se
       atom_frac         0.11394062        0.12008208        0.10027705  Se
       atom_frac         0.89100518        0.62040982        0.40432199  Se
       atom_frac         0.61428682        0.38452699        0.90455441  Se

  Number of empty states per atom not set in control.in - providing a guess from actual geometry.
  | Total number of empty states used during s.c.f. cycle:       66
  If you use a very high smearing, use empty_states (per atom!) in control.in to increase this value.

  Structure-dependent array size parameters: 
  | Maximum number of distinct radial functions  :       27
  | Maximum number of basis functions            :      468
  | Number of Kohn-Sham states (occupied + empty):      294
------------------------------------------------------------

------------------------------------------------------------
          Preparing all fixed parts of the calculation.
------------------------------------------------------------
  Determining machine precision:
    2.225073858507201E-308
  Setting up grids for atomic and cluster calculations.

  Creating wave function, potential, and density for free atoms.

  Species: Pd

  List of occupied orbitals and eigenvalues:
    n    l              occ      energy [Ha]    energy [eV]
    1    0           2.0000      -913.269104    -24851.3168
    2    0           2.0000      -130.434372     -3549.2998
    3    0           2.0000       -23.521804      -640.0609
    4    0           2.0000        -3.256918       -88.6253
    5    0           1.0000        -0.157260        -4.2793
    2    1           6.0000      -116.910756     -3181.3035
    3    1           6.0000       -19.103344      -519.8284
    4    1           6.0000        -1.998052       -54.3697
    3    2          10.0000       -12.098182      -329.2083
    4    2           9.0000        -0.243389        -6.6230


  Species: Se

  List of occupied orbitals and eigenvalues:
    n    l              occ      energy [Ha]    energy [eV]
    1    0           2.0000      -466.337810    -12689.6975
    2    0           2.0000       -59.202598     -1610.9847
    3    0           2.0000        -7.847116      -213.5309
    4    0           2.0000        -0.634372       -17.2621
    2    1           6.0000       -52.061107     -1416.6548
    3    1           6.0000        -5.620941      -152.9536
    4    1           4.0000        -0.238469        -6.4891
    3    2          10.0000        -1.951949       -53.1152

  Creating fixed part of basis set: Ionic, confined, hydrogenic.
 
  Pd                   ion:

  List of free ionic orbitals and eigenvalues:
    n    l      energy [Ha]    energy [eV]
    1    0      -914.099884    -24873.9234
    2    0      -131.248265     -3571.4470
    3    0       -24.332473      -662.1203
    4    0        -4.059276      -110.4585
    2    1      -117.724296     -3203.4411
    3    1       -19.913908      -541.8850
    4    1        -2.795328       -76.0648
    3    2       -12.908733      -351.2645
    4    2        -1.004248       -27.3270


  List of ionic basis orbitals and eigenvalues:
    n    l      energy [Ha]    energy [eV]    outer radius [A]
    5    1        -0.516938       -14.0666       5.427025

 
  Pd                   hydrogenic:
 
  List of hydrogenic basis orbitals: 
    n    l      effective z      eigenvalue [eV]  inner max. [A]     outer max. [A]     outer radius [A]   
    4    3         8.000000       -54.4226           1.054686           1.054686           4.629581
    5    4        10.000000       -54.4226           1.330451           1.330451           5.043202
    3    0         2.600000        -9.8948           0.150992           2.606197           5.493778
    3    2         2.500000        -9.3396           1.873517           1.873517           5.493778
 
 
  Se                   ion:

  List of free ionic orbitals and eigenvalues:
    n    l      energy [Ha]    energy [eV]
    1    0      -467.261007    -12714.8189
    2    0       -60.104893     -1635.5374
    3    0        -8.743714      -237.9286
    4    0        -1.414053       -38.4783
    2    1       -52.964156     -1441.2280
    3    1        -6.516916      -177.3343
    4    1        -0.961869       -26.1738
    3    2        -2.844511       -77.4031


  List of ionic basis orbitals and eigenvalues:
    n    l      energy [Ha]    energy [eV]    outer radius [A]
    4    0        -1.414046       -38.4782       4.083166

 
  Se                   hydrogenic:
 
  List of hydrogenic basis orbitals: 
    n    l      effective z      eigenvalue [eV]  inner max. [A]     outer max. [A]     outer radius [A]   
    3    2         4.300000       -27.9518           1.103845           1.103845           5.278265
    2    1         1.600000        -8.6828           1.326010           1.326010           5.475439
    4    3         7.200000       -44.0822           1.173422           1.173422           4.965294
 

  Adding cutoff potential to free-atom effective potential.
  Creating atomic-like basis functions for current effective potential.

  Species Pd                  :

  List of atomic basis orbitals and eigenvalues:
    n    l      energy [Ha]    energy [eV]    outer radius [A]
    1    0      -913.269104    -24851.3168       0.223280
    2    0      -130.434372     -3549.2998       0.615909
    3    0       -23.521804      -640.0609       1.414312
    4    0        -3.256918       -88.6253       3.581357
    5    0        -0.157260        -4.2793       5.427025
    2    1      -116.910756     -3181.3035       0.631154
    3    1       -19.103344      -519.8284       1.540671
    4    1        -1.998052       -54.3697       4.408641
    3    2       -12.098182      -329.2083       1.806051
    4    2        -0.243389        -6.6230       5.361084


  Species Se                  :

  List of atomic basis orbitals and eigenvalues:
    n    l      energy [Ha]    energy [eV]    outer radius [A]
    1    0      -466.337810    -12689.6975       0.309561
    2    0       -59.202598     -1610.9847       0.885812
    3    0        -7.847116      -213.5309       2.355489
    4    0        -0.634372       -17.2621       5.214131
    2    1       -52.061107     -1416.6548       0.907737
    3    1        -5.620941      -152.9536       2.694529
    4    1        -0.238469        -6.4891       5.408909
    3    2        -1.951949       -53.1152       4.083166

  Assembling full basis from fixed parts.
  | Species Pd :   atomic orbital   1 s accepted.
  | Species Pd :   atomic orbital   2 s accepted.
  | Species Pd :   atomic orbital   3 s accepted.
  | Species Pd :   atomic orbital   4 s accepted.
  | Species Pd :   atomic orbital   5 s accepted.
  | Species Pd :    hydro orbital   3 s accepted.
  | Species Pd :   atomic orbital   2 p accepted.
  | Species Pd :   atomic orbital   3 p accepted.
  | Species Pd :   atomic orbital   4 p accepted.
  | Species Pd :    ionic orbital   5 p accepted.
  | Species Pd :   atomic orbital   3 d accepted.
  | Species Pd :   atomic orbital   4 d accepted.
  | Species Pd :    hydro orbital   3 d accepted.
  | Species Pd :    hydro orbital   4 f accepted.
  | Species Pd :    hydro orbital   5 g accepted.
  | Species Se :   atomic orbital   1 s accepted.
  | Species Se :   atomic orbital   2 s accepted.
  | Species Se :   atomic orbital   3 s accepted.
  | Species Se :    ionic orbital   4 s accepted.
  | Species Se :   atomic orbital   4 s accepted.
  | Species Se :   atomic orbital   2 p accepted.
  | Species Se :   atomic orbital   3 p accepted.
  | Species Se :   atomic orbital   4 p accepted.
  | Species Se :    hydro orbital   2 p accepted.
  | Species Se :   atomic orbital   3 d accepted.
  | Species Se :    hydro orbital   3 d accepted.
  | Species Se :    hydro orbital   4 f accepted.
 
  Basis size parameters after reduction:
  | Total number of radial functions:       27
  | Total number of basis functions :      468
 
  Per-task memory consumption for arrays in subroutine allocate_ext:
  |           9.993344MB.
  Testing on-site integration grid accuracy.
  |  Species  Function  <phi|h_atom|phi> (log., in eV)  <phi|h_atom|phi> (rad., in eV)
           1        1             -24851.3167505682             -24851.3148165635
           1        2              -3549.2998457785              -3549.2998098031
           1        3               -640.0608571327               -640.0608534886
           1        4                -88.6252603131                -88.6252593316
           1        5                 -4.2849374515                 -4.2849400622
           1        6                  4.9432123540                  4.9432188418
           1        7              -3181.3035399559              -3181.3035364574
           1        8               -519.8284281886               -519.8284264063
           1        9                -54.3697495804                -54.3697489261
           1       10                  0.8628369484                  0.8628370487
           1       11               -329.2082917394               -329.2082912864
           1       12                 -6.6230267036                 -6.6230265076
           1       13                  5.4924295291                  5.4924115607
           1       14                 25.0740861942                 25.0740861175
           1       15                 38.8271273823                 38.8271278029
           2       16             -12689.6974611609             -12689.6967666984
           2       17              -1610.9846578580              -1610.9846472470
           2       18               -213.5308789869               -213.5308777267
           2       19                -17.0464428502                -17.0464426496
           2       20                  6.7356859379                  6.7356842047
           2       21              -1416.6548010133              -1416.6548002108
           2       22               -152.9535734377               -152.9535727493
           2       23                 -6.4896265677                 -6.4896303794
           2       24                  5.2703037283                  5.2701679583
           2       25                -53.1152220964                -53.1152219035
           2       26                  7.6186674138                  7.6186665630
           2       27                 23.1072799052                 23.1072803137

  Preparing densities etc. for the partition functions (integrals / Hartree potential).

  Preparations completed.
  max(cpu_time)          :      0.556 s.
  Wall clock time (cpu1) :      0.587 s.
------------------------------------------------------------

------------------------------------------------------------
          Begin self-consistency loop: Initialization.

          Date     :  20200420, Time     :  204646.775
------------------------------------------------------------

  Initializing index lists of integration centers etc. from given atomic structure:
  Mapping all atomic coordinates to central unit cell.

  Initializing the k-points
  Using symmetry for reducing the k-points
  | k-points reduced from:    10051 to     5026
  | Number of k-points                             :      5026
  The eigenvectors in the calculations are COMPLEX.
  | K-points in task   0:       209
  | K-points in task   1:       210
  | K-points in task   2:       210
  | K-points in task   3:       210
  | K-points in task   4:       210
  | K-points in task   5:       210
  | K-points in task   6:       210
  | K-points in task   7:       210
  | K-points in task   8:       210
  | K-points in task   9:       210
  | K-points in task  10:       210
  | K-points in task  11:       209
  | K-points in task  12:       209
  | K-points in task  13:       209
  | K-points in task  14:       209
  | K-points in task  15:       209
  | K-points in task  16:       209
  | K-points in task  17:       209
  | K-points in task  18:       209
  | K-points in task  19:       209
  | K-points in task  20:       209
  | K-points in task  21:       209
  | K-points in task  22:       209
  | K-points in task  23:       209
  | Number of basis functions in the Hamiltonian integrals :      5560
  | Number of basis functions in a single unit cell        :       468
  | Number of centers in hartree potential         :      1325
  | Number of centers in hartree multipole         :       769
  | Number of centers in electron density summation:       596
  | Number of centers in basis integrals           :       640
  | Number of centers in integrals                 :       236
  | Number of centers in hamiltonian               :       596
  | Consuming       6753 KiB for k_phase.
  | Number of super-cells (origin) [n_cells]                     :         567
  | Number of super-cells (after PM_index) [n_cells]             :          86
  | Number of super-cells in hamiltonian [n_cells_in_hamiltonian]:          86
  | Size of matrix packed + index [n_hamiltonian_matrix_size] :     1293650

  Initializing relaxation algorithms.
  | Estimated reciprocal-space cutoff momentum G_max:         2.42893580 bohr^-1 .
  | Reciprocal lattice points for long-range Hartree potential:     418
  Partitioning the integration grid into batches with parallel hashing+maxmin method.
  | Number of batches:     4181
  | Maximal batch size:     110
  | Minimal batch size:      49
  | Average batch size:      91.877
  | Standard deviation of batch sizes:      11.395

  Integration load balanced across    24 MPI tasks.
  Work distribution over tasks is as follows:
  Task     0 has      15963 integration points.
  Task     1 has      15998 integration points.
  Task     2 has      15998 integration points.
  Task     3 has      16002 integration points.
  Task     4 has      16034 integration points.
  Task     5 has      16022 integration points.
  Task     6 has      16011 integration points.
  Task     7 has      16013 integration points.
  Task     8 has      16024 integration points.
  Task     9 has      16019 integration points.
  Task    10 has      16015 integration points.
  Task    11 has      16023 integration points.
  Task    12 has      16004 integration points.
  Task    13 has      15982 integration points.
  Task    14 has      16004 integration points.
  Task    15 has      16021 integration points.
  Task    16 has      15962 integration points.
  Task    17 has      16036 integration points.
  Task    18 has      16033 integration points.
  Task    19 has      16018 integration points.
  Task    20 has      15980 integration points.
  Task    21 has      16016 integration points.
  Task    22 has      15962 integration points.
  Task    23 has      15996 integration points.
  Initializing partition tables, free-atom densities, potentials, etc. across the integration grid (initialize_grid_storage).
  | initialize_grid_storage: Actual outermost partition radius vs. multipole_radius_free
  | (-- VB: in principle, multipole_radius_free should be larger, hence this output)
  | Species        1: Confinement radius =              6.000000000000000 AA, multipole_radius_free =              6.058219618167466 AA.
  | Species        1: outer_partition_radius set to              6.058219618167466 AA .
  | Species        2: Confinement radius =              6.000000000000000 AA, multipole_radius_free =              6.037996416842453 AA.
  | Species        2: outer_partition_radius set to              6.037996416842453 AA .
  | The sparse table of interatomic distances needs       2897.83 kbyte instead of      3276.80 kbyte of memory.
  | Net number of integration points:   384136
  | of which are non-zero points    :   322110
  | Numerical average free-atom electrostatic potential    :    -17.07922898 eV
  Renormalizing the initial density to the exact electron count on the 3D integration grid.
  | Initial density: Formal number of electrons (from input files) :     456.0000000000
  | Integrated number of electrons on 3D grid     :     456.0000574033
  | Charge integration error                      :       0.0000574033
  | Normalization factor for density and gradient :       0.9999998741
  Renormalizing the free-atom superposition density to the exact electron count on the 3D integration grid.
  | Formal number of electrons (from input files) :     456.0000000000
  | Integrated number of electrons on 3D grid     :     456.0000574033
  | Charge integration error                      :       0.0000574033
  | Normalization factor for density and gradient :       0.9999998741
  Obtaining max. number of non-zero basis functions in each batch (get_n_compute_maxes).
  | Maximal number of non-zero basis functions:     1020 in task     0
  | Maximal number of non-zero basis functions:     1009 in task     1
  | Maximal number of non-zero basis functions:     1026 in task     2
  | Maximal number of non-zero basis functions:     1030 in task     3
  | Maximal number of non-zero basis functions:     1017 in task     4
  | Maximal number of non-zero basis functions:     1040 in task     5
  | Maximal number of non-zero basis functions:     1026 in task     6
  | Maximal number of non-zero basis functions:     1013 in task     7
  | Maximal number of non-zero basis functions:     1017 in task     8
  | Maximal number of non-zero basis functions:     1029 in task     9
  | Maximal number of non-zero basis functions:     1018 in task    10
  | Maximal number of non-zero basis functions:     1031 in task    11
  | Maximal number of non-zero basis functions:     1010 in task    12
  | Maximal number of non-zero basis functions:     1032 in task    13
  | Maximal number of non-zero basis functions:     1006 in task    14
  | Maximal number of non-zero basis functions:     1017 in task    15
  | Maximal number of non-zero basis functions:     1039 in task    16
  | Maximal number of non-zero basis functions:     1018 in task    17
  | Maximal number of non-zero basis functions:     1029 in task    18
  | Maximal number of non-zero basis functions:     1007 in task    19
  | Maximal number of non-zero basis functions:     1020 in task    20
  | Maximal number of non-zero basis functions:     1034 in task    21
  | Maximal number of non-zero basis functions:     1042 in task    22
  | Maximal number of non-zero basis functions:     1002 in task    23
  Allocating      438.793 MB for KS_eigenvector_complex
  Integrating Hamiltonian matrix: batch-based integration.
  Time summed over all CPUs for integration: real work       63.748 s, elapsed       64.801 s
  Integrating overlap matrix.
  Time summed over all CPUs for integration: real work       46.131 s, elapsed       46.772 s
  Decreasing sparse matrix size:
  | Tolerance:  0.1000E-12
  Hamiltonian matrix
  | Array has  1119480 nonzero elements out of  1293650 elements
  | Sparsity factor is 0.135
  Overlap matrix
  | Array has  1032736 nonzero elements out of  1293650 elements
  | Sparsity factor is 0.202
  New size of hamiltonian matrix:     1119548

  Updating Kohn-Sham eigenvalues and eigenvectors using ELSI and the (modified) LAPACK eigensolver.
  Singularity check in k-point 24, task 0 (analysis for other k-points/tasks may follow below):
  Overlap matrix is not singular
  | Lowest and highest eigenvalues :  0.5347E-03,  0.7246E+01
  Finished singularity check of overlap matrix
  | Time :     0.074 s
  Starting LAPACK eigensolver
  Finished Cholesky decomposition
  | Time :     0.018 s
  Finished transformation to standard eigenproblem
  | Time :     0.021 s
  Finished solving standard eigenproblem
  | Time :     0.073 s
  Finished back-transformation of eigenvectors
  | Time :     0.009 s

  Obtaining occupation numbers and chemical potential using ELSI.
  | Chemical potential (Fermi level):    -4.63751543 eV
  Writing Kohn-Sham eigenvalues.
  K-point:       1 at    0.000000    0.000000    0.000000 (in units of recip. lattice)

  State    Occupation    Eigenvalue [Ha]    Eigenvalue [eV]
      1       2.00000        -913.279501       -24851.59965
      2       2.00000        -913.279491       -24851.59938
      3       2.00000        -913.279489       -24851.59932
      4       2.00000        -913.279414       -24851.59728
      5       2.00000        -466.350324       -12690.03798
      6       2.00000        -466.350287       -12690.03698
      7       2.00000        -466.350250       -12690.03597
      8       2.00000        -466.350245       -12690.03582
      9       2.00000        -466.350245       -12690.03582
     10       2.00000        -466.350233       -12690.03549
     11       2.00000        -466.350219       -12690.03511
     12       2.00000        -466.350199       -12690.03459
     13       2.00000        -130.445085        -3549.59137
     14       2.00000        -130.445075        -3549.59109
     15       2.00000        -130.445073        -3549.59104
     16       2.00000        -130.444997        -3549.58898
     17       2.00000        -116.921493        -3181.59571
     18       2.00000        -116.921484        -3181.59547
     19       2.00000        -116.921483        -3181.59543
     20       2.00000        -116.921481        -3181.59538
     21       2.00000        -116.921474        -3181.59519
     22       2.00000        -116.921472        -3181.59513
     23       2.00000        -116.921431        -3181.59400
     24       2.00000        -116.921420        -3181.59373
     25       2.00000        -116.921419        -3181.59368
     26       2.00000        -116.921405        -3181.59332
     27       2.00000        -116.921397        -3181.59308
     28       2.00000        -116.921343        -3181.59163
     29       2.00000         -59.215538        -1611.33678
     30       2.00000         -59.215501        -1611.33576
     31       2.00000         -59.215463        -1611.33473
     32       2.00000         -59.215458        -1611.33459
     33       2.00000         -59.215458        -1611.33459
     34       2.00000         -59.215445        -1611.33425
     35       2.00000         -59.215431        -1611.33386
     36       2.00000         -59.215412        -1611.33333
     37       2.00000         -52.074054        -1417.00711
     38       2.00000         -52.074030        -1417.00645
     39       2.00000         -52.074017        -1417.00611
     40       2.00000         -52.073992        -1417.00542
     41       2.00000         -52.073981        -1417.00512
     42       2.00000         -52.073980        -1417.00508
     43       2.00000         -52.073974        -1417.00493
     44       2.00000         -52.073973        -1417.00491
     45       2.00000         -52.073961        -1417.00459
     46       2.00000         -52.073954        -1417.00438
     47       2.00000         -52.073950        -1417.00427
     48       2.00000         -52.073949        -1417.00424
     49       2.00000         -52.073947        -1417.00419
     50       2.00000         -52.073944        -1417.00411
     51       2.00000         -52.073936        -1417.00390
     52       2.00000         -52.073928        -1417.00367
     53       2.00000         -52.073922        -1417.00352
     54       2.00000         -52.073907        -1417.00310
     55       2.00000         -52.073903        -1417.00299
     56       2.00000         -52.073901        -1417.00295
     57       2.00000         -52.073901        -1417.00295
     58       2.00000         -52.073889        -1417.00261
     59       2.00000         -52.073875        -1417.00224
     60       2.00000         -52.073856        -1417.00171
     61       2.00000         -23.533279         -640.37311
     62       2.00000         -23.533268         -640.37281
     63       2.00000         -23.533266         -640.37276
     64       2.00000         -23.533186         -640.37056
     65       2.00000         -19.115073         -520.14761
     66       2.00000         -19.115061         -520.14727
     67       2.00000         -19.115061         -520.14726
     68       2.00000         -19.114986         -520.14523
     69       2.00000         -19.114978         -520.14501
     70       2.00000         -19.114976         -520.14496
     71       2.00000         -19.114972         -520.14485
     72       2.00000         -19.114891         -520.14265
     73       2.00000         -19.114453         -520.13073
     74       2.00000         -19.114443         -520.13046
     75       2.00000         -19.114441         -520.13040
     76       2.00000         -19.114363         -520.12827
     77       2.00000         -12.109880         -329.52661
     78       2.00000         -12.109869         -329.52630
     79       2.00000         -12.109867         -329.52624
     80       2.00000         -12.109845         -329.52564
     81       2.00000         -12.109833         -329.52533
     82       2.00000         -12.109831         -329.52528
     83       2.00000         -12.109785         -329.52401
     84       2.00000         -12.109750         -329.52305
     85       2.00000         -12.109501         -329.51629
     86       2.00000         -12.109490         -329.51599
     87       2.00000         -12.109489         -329.51596
     88       2.00000         -12.109445         -329.51477
     89       2.00000         -12.109436         -329.51451
     90       2.00000         -12.109432         -329.51442
     91       2.00000         -12.109409         -329.51379
     92       2.00000         -12.109363         -329.51252
     93       2.00000         -12.109354         -329.51228
     94       2.00000         -12.109352         -329.51225
     95       2.00000         -12.109350         -329.51219
     96       2.00000         -12.109272         -329.51005
     97       2.00000          -7.861850         -213.93182
     98       2.00000          -7.861805         -213.93061
     99       2.00000          -7.861763         -213.92945
    100       2.00000          -7.861760         -213.92938
    101       2.00000          -7.861757         -213.92929
    102       2.00000          -7.861743         -213.92892
    103       2.00000          -7.861727         -213.92848
    104       2.00000          -7.861706         -213.92790
    105       2.00000          -5.636255         -153.37030
    106       2.00000          -5.636218         -153.36931
    107       2.00000          -5.636174         -153.36810
    108       2.00000          -5.636167         -153.36790
    109       2.00000          -5.636160         -153.36773
    110       2.00000          -5.636151         -153.36746
    111       2.00000          -5.636130         -153.36689
    112       2.00000          -5.636110         -153.36635
    113       2.00000          -5.636007         -153.36355
    114       2.00000          -5.635957         -153.36220
    115       2.00000          -5.635907         -153.36084
    116       2.00000          -5.635903         -153.36072
    117       2.00000          -5.635892         -153.36043
    118       2.00000          -5.635872         -153.35987
    119       2.00000          -5.635832         -153.35879
    120       2.00000          -5.635820         -153.35848
    121       2.00000          -5.635342         -153.34545
    122       2.00000          -5.635298         -153.34425
    123       2.00000          -5.635262         -153.34328
    124       2.00000          -5.635255         -153.34310
    125       2.00000          -5.635254         -153.34305
    126       2.00000          -5.635242         -153.34273
    127       2.00000          -5.635230         -153.34240
    128       2.00000          -5.635208         -153.34180
    129       2.00000          -3.273936          -89.08832
    130       2.00000          -3.273920          -89.08790
    131       2.00000          -3.273917          -89.08781
    132       2.00000          -3.273799          -89.08461
    133       2.00000          -2.020225          -54.97313
    134       2.00000          -2.020211          -54.97275
    135       2.00000          -2.020177          -54.97181
    136       2.00000          -2.020040          -54.96809
    137       2.00000          -2.019218          -54.94573
    138       2.00000          -2.019216          -54.94565
    139       2.00000          -2.019170          -54.94440
    140       2.00000          -2.019039          -54.94086
    141       2.00000          -2.013033          -54.77742
    142       2.00000          -2.013026          -54.77723
    143       2.00000          -2.013022          -54.77713
    144       2.00000          -2.012918          -54.77429
    145       2.00000          -1.969259          -53.58627
    146       2.00000          -1.969192          -53.58443
    147       2.00000          -1.969151          -53.58333
    148       2.00000          -1.969125          -53.58260
    149       2.00000          -1.968201          -53.55747
    150       2.00000          -1.968157          -53.55628
    151       2.00000          -1.968114          -53.55511
    152       2.00000          -1.968095          -53.55458
    153       2.00000          -1.967763          -53.54555
    154       2.00000          -1.967742          -53.54498
    155       2.00000          -1.967699          -53.54382
    156       2.00000          -1.967684          -53.54341
    157       2.00000          -1.967630          -53.54193
    158       2.00000          -1.967601          -53.54115
    159       2.00000          -1.967555          -53.53988
    160       2.00000          -1.967545          -53.53963
    161       2.00000          -1.967344          -53.53415
    162       2.00000          -1.967311          -53.53325
    163       2.00000          -1.967299          -53.53294
    164       2.00000          -1.967282          -53.53246
    165       2.00000          -1.967263          -53.53194
    166       2.00000          -1.967256          -53.53175
    167       2.00000          -1.967230          -53.53106
    168       2.00000          -1.967230          -53.53104
    169       2.00000          -1.967208          -53.53047
    170       2.00000          -1.967204          -53.53035
    171       2.00000          -1.967191          -53.52999
    172       2.00000          -1.967181          -53.52973
    173       2.00000          -1.967159          -53.52913
    174       2.00000          -1.967152          -53.52894
    175       2.00000          -1.967146          -53.52876
    176       2.00000          -1.967130          -53.52832
    177       2.00000          -1.966677          -53.51601
    178       2.00000          -1.966650          -53.51527
    179       2.00000          -1.966614          -53.51429
    180       2.00000          -1.966603          -53.51399
    181       2.00000          -1.966324          -53.50641
    182       2.00000          -1.966303          -53.50583
    183       2.00000          -1.966263          -53.50474
    184       2.00000          -1.966258          -53.50460
    185       2.00000          -0.759464          -20.66607
    186       2.00000          -0.740457          -20.14886
    187       2.00000          -0.720363          -19.60208
    188       2.00000          -0.718699          -19.55679
    189       2.00000          -0.652688          -17.76054
    190       2.00000          -0.640754          -17.43579
    191       2.00000          -0.639418          -17.39945
    192       2.00000          -0.627530          -17.07596
    193       2.00000          -0.418369          -11.38441
    194       2.00000          -0.410583          -11.17252
    195       2.00000          -0.389522          -10.59945
    196       2.00000          -0.376423          -10.24300
    197       2.00000          -0.370718          -10.08776
    198       2.00000          -0.369255          -10.04794
    199       2.00000          -0.366443           -9.97143
    200       2.00000          -0.366084           -9.96164
    201       2.00000          -0.364583           -9.92080
    202       2.00000          -0.362851           -9.87369
    203       2.00000          -0.361322           -9.83207
    204       2.00000          -0.351701           -9.57027
    205       2.00000          -0.342025           -9.30697
    206       2.00000          -0.330912           -9.00458
    207       2.00000          -0.324684           -8.83511
    208       2.00000          -0.316705           -8.61798
    209       2.00000          -0.316485           -8.61199
    210       2.00000          -0.306002           -8.32674
    211       2.00000          -0.288629           -7.85398
    212       2.00000          -0.286407           -7.79353
    213       2.00000          -0.285111           -7.75828
    214       2.00000          -0.280021           -7.61975
    215       2.00000          -0.279152           -7.59612
    216       2.00000          -0.277234           -7.54391
    217       2.00000          -0.276173           -7.51505
    218       2.00000          -0.275567           -7.49857
    219       2.00000          -0.273698           -7.44770
    220       2.00000          -0.270319           -7.35576
    221       2.00000          -0.265431           -7.22273
    222       2.00000          -0.263826           -7.17908
    223       2.00000          -0.263449           -7.16881
    224       2.00000          -0.257904           -7.01793
    225       2.00000          -0.224145           -6.09930
    226       2.00000          -0.215123           -5.85380
    227       2.00000          -0.212896           -5.79320
    228       0.00000          -0.164338           -4.47187
    229       0.00000          -0.152668           -4.15430
    230       0.00000          -0.135196           -3.67888
    231       0.00000          -0.129873           -3.53403
    232       0.00000          -0.128562           -3.49835
    233       0.00000          -0.125838           -3.42423
    234       0.00000          -0.115558           -3.14451
    235       0.00000          -0.114955           -3.12807
    236       0.00000          -0.082114           -2.23443
    237       0.00000          -0.037335           -1.01594
    238       0.00000          -0.030150           -0.82042
    239       0.00000          -0.002416           -0.06573
    240       0.00000           0.022216            0.60453
    241       0.00000           0.025849            0.70339
    242       0.00000           0.027366            0.74466
    243       0.00000           0.057648            1.56869
    244       0.00000           0.089402            2.43276
    245       0.00000           0.102151            2.77968
    246       0.00000           0.111469            3.03322
    247       0.00000           0.118626            3.22798
    248       0.00000           0.122846            3.34282
    249       0.00000           0.124972            3.40066
    250       0.00000           0.125614            3.41813
    251       0.00000           0.137652            3.74571
    252       0.00000           0.151816            4.13113
    253       0.00000           0.160111            4.35685
    254       0.00000           0.170868            4.64955
    255       0.00000           0.176861            4.81262
    256       0.00000           0.189538            5.15758
    257       0.00000           0.191959            5.22348
    258       0.00000           0.198814            5.40999
    259       0.00000           0.220196            5.99184
    260       0.00000           0.231490            6.29916
    261       0.00000           0.247577            6.73691
    262       0.00000           0.257888            7.01749
    263       0.00000           0.267254            7.27236
    264       0.00000           0.280304            7.62745
    265       0.00000           0.281196            7.65173
[...]
  |                x                y                z                |
  |                                                                   |
  |  x        -0.00020997       0.00000652       0.00002337           |
  |  y         0.00000652       0.00021990       0.00001261           |
  |  z         0.00002337       0.00001261      -0.00020692           |
  |                                                                   |
  |  Pressure:       0.00006567   [eV/A**3]                           |
  |                                                                   |
  +-------------------------------------------------------------------+

 * Warning: Stress tensor is anisotropic. Be aware that pressure is an isotropic quantity.


  Leaving Libmbd.

  Timings for VdW correction (Tkatchenko-Scheffler 2009 or later):
  | CPU time:       44.291 s, Wall clock time:       44.297 s.
  Removing unitary transformations (pure translations, rotations) from forces on atoms.
  Atomic forces before filtering:
  | Net force on center of mass :  -0.740578E-05 -0.110127E-04  0.124788E-04 eV/A
  Atomic forces after filtering:
  | Net force on center of mass :  -0.139380E-17 -0.104535E-17 -0.696899E-18 eV/A

  Energy and forces in a compact form:
  | Total energy uncorrected      :         -0.108791111479333E+07 eV
  | Total energy corrected        :         -0.108791111590911E+07 eV  <-- do not rely on this value for anything but (periodic) metals
  | Electronic free energy        :         -0.108791111702490E+07 eV
  Total atomic forces (unitary forces cleaned) [eV/Ang]:
  |    1          0.179808039655074E-02         -0.126647183246545E-02          0.230344980046103E-02
  |    2         -0.176216710518237E-02         -0.237403293105721E-02         -0.346976940294818E-02
  |    3         -0.237827712723856E-02          0.109963402154420E-02          0.711313359435931E-03
  |    4          0.205975626947723E-02         -0.362903148433613E-03         -0.202288029424141E-02
  |    5          0.105593853553524E-02         -0.138623349378897E-02          0.193308333065527E-02
  |    6         -0.207738087252631E-02          0.297196024043758E-02          0.373105147299678E-02
  |    7         -0.121213676234540E-02          0.280753675438809E-02         -0.166280633622254E-02
  |    8         -0.318392588905671E-02          0.861816163106767E-03         -0.798564008026337E-03
  |    9         -0.999745794244418E-03          0.644032905621736E-03         -0.174798687734121E-02
  |   10          0.460121221188955E-03         -0.499514633610494E-02         -0.285486491938432E-02
  |   11          0.807700538794593E-03          0.807190270913053E-03          0.284380588934252E-02
  |   12          0.543203658904700E-02          0.119261738583876E-02          0.103416798527246E-02

  ------------------------------------ 
  Start decomposition of the XC Energy 
  ------------------------------------ 
  X and C from original XC functional choice 
  Hartree-Fock Energy :          0.000000000 Ha              0.000000000 eV
  X Energy            :      -1261.087910742 Ha         -34315.948027511 eV
  C Energy            :        -23.238932367 Ha           -632.363524003 eV
  Total XC Energy     :      -1284.326843109 Ha         -34948.311551514 eV
  ------------------------------------ 
  LDA X and C from self-consistent density 
  X Energy LDA        :      -1197.520550362 Ha         -32586.192142560 eV
  C Energy LDA        :        -42.068605878 Ha          -1144.745009915 eV
  ------------------------------------ 
  End decomposition of the XC Energy 
  ------------------------------------ 

------------------------------------------------------------
  Relaxation / MD: End force evaluation.       :  max(cpu_time)    wall_clock(cpu1)
  | Time for this force evaluation             :     1050.447 s        1051.068 s

------------------------------------------------------------
  Geometry optimization: Attempting to predict improved coordinates.

  +-------------------------------------------------------------------+
  | Generalized derivatives on lattice vectors [eV/A]                 |
  +-------------------------------------------------------------------+
  |lattice_vector      -0.00933180       0.00028978       0.00103875  |
  |lattice_vector       0.00028460       0.00959847       0.00055032  |
  |lattice_vector       0.00081519       0.00043974      -0.00721724  |
  +-------------------------------------------------------------------+
  | Forces on lattice vectors cleaned from atomic contributions [eV/A]|
  +-------------------------------------------------------------------+
  |lattice_vector       0.00933180      -0.00028978      -0.00103875  |
  |lattice_vector      -0.00028460      -0.00959847      -0.00055032  |
  |lattice_vector      -0.00081519      -0.00043974       0.00721724  |
  +-------------------------------------------------------------------+
  Symmetrized total atomic cartesian forces [eV/Ang]:
  |   1     0.1798080397E-02    -0.1266471832E-02     0.2303449800E-02
  |   2    -0.1762167105E-02    -0.2374032931E-02    -0.3469769403E-02
  |   3    -0.2378277127E-02     0.1099634022E-02     0.7113133594E-03
  |   4     0.2059756269E-02    -0.3629031484E-03    -0.2022880294E-02
  |   5     0.1055938536E-02    -0.1386233494E-02     0.1933083331E-02
  |   6    -0.2077380873E-02     0.2971960240E-02     0.3731051473E-02
  |   7    -0.1212136762E-02     0.2807536754E-02    -0.1662806336E-02
  |   8    -0.3183925889E-02     0.8618161631E-03    -0.7985640080E-03
  |   9    -0.9997457942E-03     0.6440329056E-03    -0.1747986877E-02
  |  10     0.4601212212E-03    -0.4995146336E-02    -0.2854864919E-02
  |  11     0.8077005388E-03     0.8071902709E-03     0.2843805889E-02
  |  12     0.5432036589E-02     0.1192617386E-02     0.1034167985E-02
  +-------------------------------------------------------------------+
  | Symmetrized forces on lattice vectors cleaned from symmetrized
  | atomic contributions [eV/A]|
  +-------------------------------------------------------------------+
  |lattice_vector       0.00933180       0.00000000       0.00000000  |
  |lattice_vector       0.00000000      -0.00959847       0.00000000  |
  |lattice_vector       0.00000000       0.00000000       0.00721724  |
  +-------------------------------------------------------------------+
  Removing unitary transformations (pure translations, rotations) from forces on atoms.
  Atomic forces before filtering:
  | Net force on center of mass :  -0.696899E-18 -0.696899E-18 -0.139380E-17 eV/A
  Atomic forces after filtering:
  | Net force on center of mass :  -0.696899E-18 -0.348449E-18 -0.139380E-17 eV/A
  Net remaining forces (excluding translations, rotations) in present geometry:
  || Forces on atoms   || =   0.543204E-02 eV/A.
  || Forces on lattice || =   0.959847E-02 eV/A^3.
  Maximum force component is  0.959847E-02 eV/A.
  Present geometry is converged.

  Symmetry-reduced parameters:
  | atomic   1          0.502308469666836E+00
  | atomic   2          0.237451007920689E-02
  | atomic   3          0.207552998009902E-02
  | atomic   4          0.236691429006975E-02
  | atomic   5          0.239174071232012E-02
  | atomic   6          0.502747118744712E+00
  | atomic   7          0.249265350845181E-02
  | atomic   8          0.502358613587521E+00
  | atomic   9          0.214954222923944E-02
  | atomic  10          0.502425034618407E+00
  | atomic  11          0.502386847694158E+00
  | atomic  12          0.502670456715235E+00
  | atomic  13          0.614597939572331E+00
  | atomic  14          0.120692238702386E+00
  | atomic  15          0.405220405001578E+00
  | atomic  16          0.890322988027045E+00
  | atomic  17          0.884156669666917E+00
  | atomic  18          0.904982963596347E+00
  | atomic  19          0.114558953856212E+00
  | atomic  20          0.384162684317002E+00
  | atomic  21          0.599824952919183E+00
  | atomic  22          0.390290676508940E+00
  | atomic  23          0.620662507215708E+00
  | atomic  24          0.996055456050284E-01
  | atomic  25          0.390304728351614E+00
  | atomic  26          0.884196663244221E+00
  | atomic  27          0.599826272069364E+00
  | atomic  28          0.114572556393300E+00
  | atomic  29          0.120723924725718E+00
  | atomic  30          0.996191800737780E-01
  | atomic  31          0.890215598081345E+00
  | atomic  32          0.620657974236477E+00
  | atomic  33          0.405222912044497E+00
  | atomic  34          0.614476996981165E+00
  | atomic  35          0.384169137305582E+00
  | atomic  36          0.904988623325515E+00
  | lattice  1          0.585282042052467E+01
  | lattice  2          0.595927091813309E+01
  | lattice  3          0.745789528395336E+01
  Symmetry-reduced forces:
  | atomic   1          0.105238416626773E-01
  | atomic   2         -0.754724875984610E-02
  | atomic   3          0.171788874036816E-01
  | atomic   4         -0.103136476175882E-01
  | atomic   5         -0.141475054047395E-01
  | atomic   6         -0.258771768666529E-01
  | atomic   7         -0.139196289359686E-01
  | atomic   8          0.655301704517811E-02
  | atomic   9          0.530490054875025E-02
  | atomic  10          0.120553835553000E-01
  | atomic  11         -0.216263817855937E-02
  | atomic  12         -0.150864294064252E-01
  | atomic  13          0.618021862359959E-02
  | atomic  14         -0.826094094527865E-02
  | atomic  15          0.144167330551828E-01
  | atomic  16         -0.121585371919293E-01
  | atomic  17          0.177107162306875E-01
  | atomic  18          0.278257911846499E-01
  | atomic  19         -0.709441879512380E-02
  | atomic  20          0.167308721320147E-01
  | atomic  21         -0.124010355330418E-01
  | atomic  22         -0.186349464609083E-01
  | atomic  23          0.513579599757920E-02
  | atomic  24         -0.595560674939451E-02
  | atomic  25         -0.585133259988739E-02
  | atomic  26          0.383796656479237E-02
  | atomic  27         -0.130363030889354E-01
  | atomic  28          0.269300687929146E-02
  | atomic  29         -0.297674302925693E-01
  | atomic  30         -0.212912836186002E-01
  | atomic  31          0.472732620712577E-02
  | atomic  32          0.481026550685213E-02
  | atomic  33          0.212088065306064E-01
  | atomic  34          0.317927346734114E-01
  | atomic  35          0.710713010388884E-02
  | atomic  36          0.771271654017901E-02
  | lattice  1          0.933179728375834E-02
  | lattice  2         -0.959847195919050E-02
  | lattice  3          0.721723791445039E-02
------------------------------------------------------------
  Final atomic structure:
                         x [A]             y [A]             z [A]
  lattice_vector         5.85282042        0.00000000        0.00000000
  lattice_vector         0.00000000        5.95927092        0.00000000
  lattice_vector         0.00000000        0.00000000        7.45789528

            atom        -2.91289915        0.01415035        0.01547909  Pd
            atom         0.01385312        0.01425303       -3.70845992  Pd
            atom         0.01458905       -2.96557984        0.01603106  Pd
            atom        -2.91221692       -2.96541159       -3.70903166  Pd
            atom        -2.25568905        0.71923775        3.02209135  Se
            atom        -0.64191986       -0.69034179       -0.70862711  Se
            atom         0.67049298        2.28932951       -2.98446360  Se
            atom         2.28430124       -2.26057489        0.74284773  Se
            atom         2.28438348       -0.69010346       -2.98445376  Se
            atom         0.67057260        0.71942657        0.74294941  Se
            atom        -0.64254839       -2.26060190        3.02211004  Se
            atom        -2.25639690        2.28936797       -0.70858490  Se

  Fractional coordinates:
                         L1                L2                L3
       atom_frac        -0.49769153        0.00237451        0.00207553  Pd
       atom_frac         0.00236691        0.00239174       -0.49725288  Pd
       atom_frac         0.00249265       -0.49764139        0.00214954  Pd
       atom_frac        -0.49757497       -0.49761315       -0.49732954  Pd
       atom_frac        -0.38540206        0.12069224        0.40522041  Se
       atom_frac        -0.10967701       -0.11584333       -0.09501704  Se
       atom_frac         0.11455895        0.38416268       -0.40017505  Se
       atom_frac         0.39029068       -0.37933749        0.09960555  Se
       atom_frac         0.39030473       -0.11580334       -0.40017373  Se
       atom_frac         0.11457256        0.12072392        0.09961918  Se
       atom_frac        -0.10978440       -0.37934203        0.40522291  Se
       atom_frac        -0.38552300        0.38416914       -0.09501138  Se
------------------------------------------------------------

------------------------------------------------------------------------------
  Final output of selected total energy values:

  The following output summarizes some interesting total energy values
  at the end of a run (AFTER all relaxation, molecular dynamics, etc.).

  | Total energy of the DFT / Hartree-Fock s.c.f. calculation      :       -1087911.114793332 eV
  | Final zero-broadening corrected energy (caution - metals only) :       -1087911.115909115 eV
  | For reference only, the value of 1 Hartree used in FHI-aims is :             27.211384500 eV
  | For reference only, the overall average (free atom contribution
  | + realspace contribution) of the electrostatic potential after
  | s.c.f. convergence is                                          :            -17.035473760 eV

  Before relying on these values, please be sure to understand exactly which
  total energy value is referred to by a given number. Different objects may
  all carry the same name 'total energy'. Definitions:

  Total energy of the DFT / Hartree-Fock s.c.f. calculation:
  | Note that this energy does not include ANY quantities calculated after the
  | s.c.f. cycle, in particular not ANY RPA, MP2, etc. many-body perturbation terms.

  Final zero-broadening corrected energy:
  | For metallic systems only, a broadening of the occupation numbers at the Fermi
  | level can be extrapolated back to zero broadening by an electron-gas inspired
  | formula. For all systems that are not real metals, this value can be
  | meaningless and should be avoided.

------------------------------------------------------------------------------
  Methods described in the following list of references were used in this FHI-aims run.
  If you publish the results, please make sure to cite these reference if they apply.
  FHI-aims is an academic code, and for our developers (often, Ph.D. students
  and postdocs), scientific credit in the community is essential.
  Thank you for helping us!

  For any use of FHI-aims, please cite:

    Volker Blum, Ralf Gehrke, Felix Hanke, Paula Havu, Ville Havu,
    Xinguo Ren, Karsten Reuter, and Matthias Scheffler
    'Ab initio molecular simulations with numeric atom-centered orbitals'
    Computer Physics Communications 180, 2175-2196 (2009)
    http://dx.doi.org/10.1016/j.cpc.2009.06.022


  For the analytical stress tensor used in your run, please cite:

    Franz Knuth, Christian Carbogno, Viktor Atalla, Volker Blum, Matthias Scheffler
    'All-electron formalism for total energy strain derivatives and
    stress tensor components for numeric atom-centered orbitals'
    Computer Physics Communications 190, 33-50 (2015).
    http://dx.doi.org/10.1016/j.cpc.2015.01.003


  The provided symmetry information was generated with SPGlib:

    Atsushi Togo, Yusuke Seto, Dimitar Pashov
    SPGlib 1.7.3 obtained from http://spglib.sourceforge.net
    Copyright (C) 2008 Atsushi Togo


  The ELSI infrastructure was used in your run to solve the Kohn-Sham electronic structure.
  Please check out http://elsi-interchange.org to learn more.
  If scalability is important for your project, please acknowledge ELSI by citing:

    V. W-z. Yu, F. Corsetti, A. Garcia, W. P. Huhn, M. Jacquelin, W. Jia,
    B. Lange, L. Lin, J. Lu, W. Mi, A. Seifitokaldani, A. Vazquez-Mayagoitia,
    C. Yang, H. Yang, and V. Blum
    'ELSI: A unified software interface for Kohn-Sham electronic structure solvers'
    Computer Physics Communications 222, 267-285 (2018).
    http://dx.doi.org/10.1016/j.cpc.2017.09.007


  For the real-space grid partitioning and parallelization used in this calculation, please cite:

    Ville Havu, Volker Blum, Paula Havu, and Matthias Scheffler,
    'Efficient O(N) integration for all-electron electronic structure calculation'
    'using numerically tabulated basis functions'
    Journal of Computational Physics 228, 8367-8379 (2009).
    http://dx.doi.org/10.1016/j.jcp.2009.08.008

  Of course, there are many other important community references, e.g., those cited in the
  above references. Our list is limited to references that describe implementations in the
  FHI-aims code. The reason is purely practical (length of this list) - please credit others as well.

------------------------------------------------------------
          Leaving FHI-aims.
          Date     :  20200420, Time     :  214814.663

          Computational steps:
          | Number of self-consistency cycles          :           68
          | Number of SCF (re)initializations          :            3
          | Number of relaxation steps                 :            2

          Detailed time accounting                     :  max(cpu_time)    wall_clock(cpu1)
          | Total time                                 :     3686.683 s        3688.826 s
          | Preparation time                           :        0.556 s           0.587 s
          | Boundary condition initalization           :        0.534 s           0.536 s
          | Grid partitioning                          :        1.038 s           1.038 s
          | Preloading free-atom quantities on grid    :        2.361 s           2.360 s
          | Free-atom superposition energy             :        0.410 s           0.411 s
          | Total time for integrations                :      193.882 s         193.894 s
          | Total time for solution of K.-S. equations :     2090.064 s        2093.071 s
          | Total time for EV reorthonormalization     :       19.654 s          19.476 s
          | Total time for density & force components  :     1033.361 s        1033.485 s
          | Total time for mixing & preconditioning    :       51.386 s          51.398 s
          | Total time for Hartree multipole update    :        0.293 s           0.296 s
          | Total time for Hartree multipole sum       :      151.748 s         151.770 s
          | Total time for total energy evaluation     :        3.048 s           3.128 s
          | Total time for scaled ZORA corrections     :        0.000 s           0.000 s
          | Total time for vdW correction              :      132.963 s         132.992 s

          Partial memory accounting:
          | Residual value for overall tracked memory usage across tasks:     0.000000 MB (should be 0.000000 MB)
          | Peak values for overall tracked memory usage:
          |   Minimum:      924.158 MB (on task 16 after allocating d_wave)
          |   Maximum:      929.560 MB (on task  1 after allocating d_wave)
          |   Average:      926.538 MB
          | Largest tracked array allocation:
          |   Minimum:      438.793 MB (KS_eigenvector_complex on task  0)
          |   Maximum:      440.892 MB (KS_eigenvector_complex on task  1)
          |   Average:      439.668 MB
          Note:  These values currently only include a subset of arrays which are explicitly tracked.
          The "true" memory usage will be greater.

          Have a nice day.
------------------------------------------------------------
