------------------------------------------------------------
          Invoking FHI-aims ...

          When using FHI-aims, please cite the following reference:

          Volker Blum, Ralf Gehrke, Felix Hanke, Paula Havu,
          Ville Havu, Xinguo Ren, Karsten Reuter, and Matthias Scheffler,
          'Ab Initio Molecular Simulations with Numeric Atom-Centered Orbitals',
          Computer Physics Communications 180, 2175-2196 (2009)

          For any questions about FHI-aims, please visit the aimsclub website
          with its forums and wiki. Contributions to both the forums and the
          wiki are warmly encouraged - they are for you, and everyone is welcome there.

------------------------------------------------------------



  Date     :  20200420, Time     :  113454.091
  Time zero on CPU 1             :   0.967210000000000E-01  s.
  Internal wall clock time zero  :           356614494.091  s.

  FHI-aims created a unique identifier for this run for later identification
  aims_uuid : A120F76A-9424-4572-A308-5DF37ABDDB9F

  Build configuration of the current instance of FHI-aims
  -------------------------------------------------------
  FHI-aims version      : 200112
  Commit number         : 23daeca3f
  CMake host system     : Linux-3.10.0-693.21.1.el7.x86_64
  CMake version         : 3.13.3
  Fortran compiler      : /sw/installed/impi/2018.4.274-iccifort-2019.1.144-GCC-8.2.0-2.31.1/bin64/mpiifort (Intel) version 19.0.0.20181018
  Fortran compiler flags: -O3 -ip -fp-model precise
  C compiler            : /sw/installed/impi/2018.4.274-iccifort-2019.1.144-GCC-8.2.0-2.31.1/bin64/mpiicc (Intel) version 19.0.0.20181018
  C compiler flags      : -O3 -ip -fp-model precise
  Architecture          :
  Using MPI
  Using Scalapack
  Using C files
  Using LibXC
  Using SPGlib
  Using i-PI
  Using RLSY
  Linking against: /sw/installed/imkl/2019.1.144-iimpi-2019a/mkl/lib/intel64/libmkl_intel_lp64.so
                   /sw/installed/imkl/2019.1.144-iimpi-2019a/mkl/lib/intel64/libmkl_sequential.so
                   /sw/installed/imkl/2019.1.144-iimpi-2019a/mkl/lib/intel64/libmkl_core.so
                   /sw/installed/imkl/2019.1.144-iimpi-2019a/mkl/lib/intel64/libmkl_blacs_intelmpi_lp64.so
                   /sw/installed/imkl/2019.1.144-iimpi-2019a/mkl/lib/intel64/libmkl_scalapack_lp64.so

  Using       24 parallel tasks.
  Task        0 on host taurusi6455.taurus.hrsk.tu-dresden.de reporting.
  Task        1 on host taurusi6455.taurus.hrsk.tu-dresden.de reporting.
  Task        2 on host taurusi6455.taurus.hrsk.tu-dresden.de reporting.
  Task        3 on host taurusi6455.taurus.hrsk.tu-dresden.de reporting.
  Task        4 on host taurusi6455.taurus.hrsk.tu-dresden.de reporting.
  Task        5 on host taurusi6455.taurus.hrsk.tu-dresden.de reporting.
  Task        6 on host taurusi6455.taurus.hrsk.tu-dresden.de reporting.
  Task        7 on host taurusi6455.taurus.hrsk.tu-dresden.de reporting.
  Task        8 on host taurusi6455.taurus.hrsk.tu-dresden.de reporting.
  Task        9 on host taurusi6455.taurus.hrsk.tu-dresden.de reporting.
  Task       10 on host taurusi6455.taurus.hrsk.tu-dresden.de reporting.
  Task       11 on host taurusi6455.taurus.hrsk.tu-dresden.de reporting.
  Task       12 on host taurusi6455.taurus.hrsk.tu-dresden.de reporting.
  Task       13 on host taurusi6455.taurus.hrsk.tu-dresden.de reporting.
  Task       14 on host taurusi6455.taurus.hrsk.tu-dresden.de reporting.
  Task       15 on host taurusi6455.taurus.hrsk.tu-dresden.de reporting.
  Task       16 on host taurusi6455.taurus.hrsk.tu-dresden.de reporting.
  Task       17 on host taurusi6455.taurus.hrsk.tu-dresden.de reporting.
  Task       18 on host taurusi6455.taurus.hrsk.tu-dresden.de reporting.
  Task       19 on host taurusi6455.taurus.hrsk.tu-dresden.de reporting.
  Task       20 on host taurusi6455.taurus.hrsk.tu-dresden.de reporting.
  Task       21 on host taurusi6455.taurus.hrsk.tu-dresden.de reporting.
  Task       22 on host taurusi6455.taurus.hrsk.tu-dresden.de reporting.
  Task       23 on host taurusi6455.taurus.hrsk.tu-dresden.de reporting.

  Performing system and environment tests:
  | Environment variable OMP_NUM_THREADS correctly set to 1.
  | Maximum stacksize for task 0: unlimited
  | Maximum stacksize for task 1: unlimited
  | Maximum stacksize for task 2: unlimited
  | Maximum stacksize for task 3: unlimited
  | Maximum stacksize for task 4: unlimited
  | Maximum stacksize for task 5: unlimited
  | Maximum stacksize for task 6: unlimited
  | Maximum stacksize for task 7: unlimited
  | Maximum stacksize for task 8: unlimited
  | Maximum stacksize for task 9: unlimited
  | Maximum stacksize for task 10: unlimited
  | Maximum stacksize for task 11: unlimited
  | Maximum stacksize for task 12: unlimited
  | Maximum stacksize for task 13: unlimited
  | Maximum stacksize for task 14: unlimited
  | Maximum stacksize for task 15: unlimited
  | Maximum stacksize for task 16: unlimited
  | Maximum stacksize for task 17: unlimited
  | Maximum stacksize for task 18: unlimited
  | Maximum stacksize for task 19: unlimited
  | Maximum stacksize for task 20: unlimited
  | Maximum stacksize for task 21: unlimited
  | Maximum stacksize for task 22: unlimited
  | Maximum stacksize for task 23: unlimited
  | Current stacksize for task 0: unlimited
  | Current stacksize for task 1: unlimited
  | Current stacksize for task 2: unlimited
  | Current stacksize for task 3: unlimited
  | Current stacksize for task 4: unlimited
  | Current stacksize for task 5: unlimited
  | Current stacksize for task 6: unlimited
  | Current stacksize for task 7: unlimited
  | Current stacksize for task 8: unlimited
  | Current stacksize for task 9: unlimited
  | Current stacksize for task 10: unlimited
  | Current stacksize for task 11: unlimited
  | Current stacksize for task 12: unlimited
  | Current stacksize for task 13: unlimited
  | Current stacksize for task 14: unlimited
  | Current stacksize for task 15: unlimited
  | Current stacksize for task 16: unlimited
  | Current stacksize for task 17: unlimited
  | Current stacksize for task 18: unlimited
  | Current stacksize for task 19: unlimited
  | Current stacksize for task 20: unlimited
  | Current stacksize for task 21: unlimited
  | Current stacksize for task 22: unlimited
  | Current stacksize for task 23: unlimited
  | Checking for scalapack...
  | Testing pdtran()...
  | All pdtran() tests passed.

  Obtaining array dimensions for all initial allocations:
  
  -----------------------------------------------------------------------
  Parsing control.in (first pass over file, find array dimensions only).
  The contents of control.in will be repeated verbatim below
  unless switched off by setting 'verbatim_writeout .false.' .
  in the first line of control.in .
  -----------------------------------------------------------------------
  
  #===============================================================================
  # FHI-aims file: ./control.in
  # Created using the Atomic Simulation Environment (ASE)
  # Thu Apr  2 11:27:09 2020
  #===============================================================================
  xc                                 pbe
  # include_spin_orbit
  # vdw_correction_hirshfeld
  many_body_dispersion_nl 	 beta=0.81
  spin                               none
  k_grid 	 	 8 8 7
  relativistic                       atomic_zora scalar
  energy_tolerance 1e-2
  harmonic_length_scale  0.015
  ### SCF settings
  adjust_scf 	 always 	 3
  # frozen_core_scf 	 .true.
  # charge_mix_param  0.05
  # occupation_type 	 gaussian 	 0.01
  # sc_accuracy_eev   1E-3 	 	 # sum of eigenvalues convergence
  # sc_accuracy_etot  1E-6 	 	 # total energy convergence
  # sc_accuracy_rho   1E-3 	 	 # electron density convergence
  # elsi_restart 	 read_and_write 	 1000
  ### geometry optimisation section
  relax_geometry 	 bfgs 	 1E-2
  relax_unit_cell 	 full
  #===============================================================================
  
  ################################################################################
  #
  #  FHI-aims code project
  # Volker Blum, Fritz Haber Institute Berlin, 2009
  #
  #  Suggested "tight" defaults for Pd atom (to be pasted into control.in file)
  #
  ################################################################################
    species        Pd
  #     global species definitions
      nucleus             46
      mass                106.42
  #
      l_hartree           6
  #
      cut_pot             4.0  2.0  1.0
      basis_dep_cutoff    1e-4
  #
      radial_base         62 7.0
      radial_multiplier   2
      angular_grids specified
        division   0.3627   50
        division   0.7349  110
        division   1.0624  194
        division   1.2496  302
        division   1.6740  434
  #      division   2.0126  590
  #      division   2.0830  770
  #      division   2.7936 1202
  #       outer_grid  974
        outer_grid  434
  ################################################################################
  #
  #  Definition of "minimal" basis
  #
  ################################################################################
  #     valence basis states
      valence      5  s   1.
      valence      4  p   6.
      valence      4  d   9.
  #     ion occupancy
      ion_occ     5  s   0.
      ion_occ     4  p   6.
      ion_occ     4  d   8.
  ################################################################################
  #
  #  Suggested additional basis functions. For production calculations,
  #  uncomment them one after another (the most important basis functions are
  #  listed first).
  #
  #  Constructed for dimers: 2.0 A, 2.275 A, 2.75 A, 3.75 A
  #
  ################################################################################
  #  "First tier" - max. impr. -120.76  meV, min. impr. -5.71 meV
       ionic 5 p auto
       hydro 4 f 8
       hydro 5 g 10
       hydro 3 s 2.6
       hydro 3 d 2.5
  #  "Second tier" - max. impr. -5.00  meV, min. impr. -0.62 meV
  #     hydro 5 f 17.2
  #     hydro 6 h 14
  #     hydro 4 d 4
  #     hydro 5 f 7.6
  #     hydro 3 p 3.3
  #     hydro 4 s 9.4
  #  "Third tier" - max. impr. -0.54  meV, min. impr. -0.14 meV
  #     hydro 4 f 20
  #     hydro 5 g 12.8
  #     hydro 5 d 9.8
  #     hydro 6 h 15.2
  #     hydro 5 s 10
  #     hydro 6 p 9.8
  #  "Fourth tier" - max. impr. -0.15  meV, min. impr. -0.05 meV
  #     hydro 5 f 9.2
  #     hydro 2 s 5.6
  #     hydro 5 f 43.2
  #     hydro 5 d 13.2
  #     hydro 5 g 14
  #     hydro 4 p 4.7
  ################################################################################
  #
  #  FHI-aims code project
  # Volker Blum, Fritz Haber Institute Berlin, 2009
  #
  #  Suggested "tight" defaults for Se atom (to be pasted into control.in file)
  #
  ################################################################################
    species        Se
  #     global species definitions
      nucleus             34
      mass                78.96
  #
      l_hartree           6
  #
      cut_pot             4.0          2.0  1.0
      basis_dep_cutoff    1e-4
  #
      radial_base         55 7.0
      radial_multiplier   2
      angular_grids       specified
        division   0.0830  110
        division   0.1357  194
        division   0.7377  302
        division   0.8610  434
  #      division   0.9640  590
  #      division   1.0773  770
  #      division   2.5539  974
  #      outer_grid  974
        outer_grid  434
  ################################################################################
  #
  #  Definition of "minimal" basis
  #
  ################################################################################
  #     valence basis states
      valence      4  s   2.
      valence      4  p   4.
      valence      3  d  10.
  #     ion occupancy
      ion_occ      4  s   1.
      ion_occ      4  p   3.
      ion_occ      3  d  10.
  ################################################################################
  #
  #  Suggested additional basis functions. For production calculations,
  #  uncomment them one after another (the most important basis functions are
  #  listed first).
  #
  #  Constructed for dimers: 1.85 A, 2.15 A, 2.50 A, 3.00 A, 4.00 A
  #
  ################################################################################
  #  "First tier" - improvements: -336.21 meV to -36.85 meV
       hydro 3 d 4.3
       hydro 2 p 1.6
       hydro 4 f 7.2
       ionic 4 s auto
  #  "Second tier" - improvements: -14.39 meV to -1.49 meV
  #     hydro 5 g 10.4
  #     hydro 4 p 4.5
  #     hydro 4 d 6.2
  #     hydro 4 f 11.2
  #     hydro 1 s 0.65
  #     hydro 6 h 15.2
  #  "Third tier" - improvements: -0.46 meV and below
  #     hydro 5 g 14.4
  #     ionic 4 d auto
  #     hydro 4 f 22.4
  #     hydro 5 f 7.4
  #     hydro 5 p 8
  #     hydro 5 s 9.4
  #  "Fourth tier" - improvements: -0.12 meV and below
  #     hydro 5 d 11.6
  #     hydro 6 h 18
  #     hydro 4 p 4
  #     hydro 5 f 16
  #     hydro 4 s 3.9
  #
  #
  
  -----------------------------------------------------------------------
  Completed first pass over input file control.in .
  -----------------------------------------------------------------------
  
  
  -----------------------------------------------------------------------
  Parsing geometry.in (first pass over file, find array dimensions only).
  The contents of geometry.in will be repeated verbatim below
  unless switched off by setting 'verbatim_writeout .false.' .
  in the first line of geometry.in .
  -----------------------------------------------------------------------
  
  #
  # This is the geometry file that corresponds to the current relaxation step.
  # If you do not want this file to be written, set the "write_restart_geometry" flag to .false.
  #  aims_uuid : 76CF67A9-83A4-4863-A944-09F2E62AF020
  #
  lattice_vector      5.83681527      0.00000000      0.00000000
  lattice_vector      0.00000000      5.94976887      0.00000000
  lattice_vector      0.00000000      0.00000000      7.52487887
  atom_frac       0.50125442      0.00071000      0.00052439 Pd
  atom_frac       0.00068817      0.00071642      0.50152374 Pd
  atom_frac       0.00079305      0.50128284      0.00054958 Pd
  atom_frac       0.50135697      0.50128939      0.50149723 Pd
  atom_frac       0.61299337      0.11890194      0.40392129 Se
  atom_frac       0.89021467      0.88373908      0.90430508 Se
  atom_frac       0.11240868      0.38317262      0.59887191 Se
  atom_frac       0.38960469      0.61946893      0.09812273 Se
  atom_frac       0.38963769      0.88374680      0.59887239 Se
  atom_frac       0.11244359      0.11891537      0.09813818 Se
  atom_frac       0.89019713      0.61945978      0.40392408 Se
  atom_frac       0.61297842      0.38316771      0.90432028 Se
  #
  # What follows is the current estimated Hessian matrix constructed by the BFGS algorithm.
  # This is NOT the true Hessian matrix of the system.
  # If you do not want this information here, switch it off using the "hessian_to_restart_geometry" keyword.
  #
  trust_radius             0.0122110358
  hessian_block                1       1           6.030608          -0.179578          -2.325629          -0.179578           6.90217
  hessian_block                1       2          -0.261322           1.194485           0.406553           0.152833           1.14431
  hessian_block                1       3          -0.338101           1.633783           0.538478          -0.050482          -0.44116
  hessian_block                1       4           0.494236           0.383121          -0.004997           0.191657          -0.36757
  hessian_block                1       5           0.069663          -1.071637          -0.519029          -0.694614           0.68379
  hessian_block                1       6          -1.366902          -0.804846           0.343903           0.686992          -1.30413
  hessian_block                1       7          -0.552249           0.566507           0.406132           0.213958           0.26029
  hessian_block                1       8          -0.035208          -1.130779           0.096855          -0.358947          -2.27270
  hessian_block                1       9          -0.118486           0.020911           0.199161          -0.105219          -0.92830
  hessian_block                1      10          -2.684066           1.746177           1.375664          -0.157311           0.75962
  hessian_block                1      11           0.371908          -1.096086          -0.494633           0.240832          -0.78759
  hessian_block                1      12          -0.044171          -1.262055          -0.022458           0.059879          -2.00170
  hessian_block                2       2           6.962413           1.175265           2.764808           1.175265           7.48021
  hessian_block                2       3           2.105535           1.822250           0.979927          -0.727708          -0.47376
  hessian_block                2       4           0.387066           0.631796           0.155289          -0.673640           0.00552
  hessian_block                2       5          -2.815611          -0.448425          -1.185881           1.073205           0.41084
  hessian_block                2       6          -1.674619          -1.561066          -0.913659          -1.136849          -1.82303
  hessian_block                2       7           0.361510          -0.095016          -0.005205          -0.422585          -1.81308
  hessian_block                2       8          -0.769059          -0.874795          -0.468239          -0.203077          -0.49261
  hessian_block                2       9          -2.025231           0.351567          -0.979262          -0.031586          -1.52162
  hessian_block                2      10           1.656764           1.182044           0.894184           1.142394           1.54780
  hessian_block                2      11          -1.309576          -1.609398          -0.751363          -1.117127          -2.91410
  hessian_block                2      12          -1.051958          -0.727055          -0.390262          -0.272778           0.09654
  hessian_block                3       3           8.180485          -0.802914           3.466435          -0.802914           6.31378
  hessian_block                3       4           0.509531          -0.305983           0.061733          -0.655221           0.43675
  hessian_block                3       5          -1.460913           0.317291          -0.894656           0.846773           0.14479
  hessian_block                3       6          -2.494515           1.026102          -1.486841          -1.355152          -1.69578
  hessian_block                3       7           0.697046          -0.040076           0.644003           0.067433          -0.03752
  hessian_block                3       8          -2.827473          -0.196216          -1.291339          -1.040144          -0.39190
  hessian_block                3       9          -0.304554           0.364543           0.141184          -1.012273          -0.00376
  hessian_block                3      10           2.151638           0.100750           1.154966           2.400745          -2.03187
  hessian_block                3      11          -1.551056           0.397453          -0.929979          -1.065399          -0.06603
  hessian_block                3      12          -3.101711          -0.082760          -1.451993          -0.839882          -0.10650
  hessian_block                4       4           5.938467          -0.027404          -2.007690          -0.027404           6.59915
  hessian_block                4       5          -0.593214           0.941882           0.290468           0.235065          -1.85995
  hessian_block                4       6          -0.281630           0.305299          -0.135180          -0.317468          -0.44654
  hessian_block                4       7          -1.883507          -0.718336           0.748131          -0.191334          -0.41439
  hessian_block                4       8          -0.245672           0.080406          -0.129942           0.046472          -0.30592
  hessian_block                4       9          -0.279836           0.638604           0.126348           0.056076          -2.27582
  hessian_block                4      10          -0.224368          -0.407059           0.029022          -0.183821           0.46901
  hessian_block                4      11          -2.002270          -0.150239           0.814853          -0.701979          -0.41185
  hessian_block                4      12          -0.252891           0.474051           0.003765           0.375459           0.21865
  hessian_block                5       5           5.912721          -0.880218          -1.462572          -0.880218           6.73064
  hessian_block                5       6           1.249626          -0.925832          -0.293727           0.735610          -1.24641
  hessian_block                5       7          -0.616811           1.526248          -0.225842          -0.889655           0.20771
  hessian_block                5       8           0.330207          -0.632766           0.460364           0.693742          -0.40630
  hessian_block                5       9          -1.378845          -0.391901           1.743996           0.056474          -2.54515
  hessian_block                5      10          -1.000769           1.351189           0.395429          -0.383503           1.57649
  hessian_block                5      11           1.063203          -1.565876           0.293848           1.203069          -1.28799
  hessian_block                5      12           0.806653           0.058727          -0.689646          -0.274630          -0.76144
  hessian_block                6       6           6.544422           1.755655           4.110866           1.755655           7.45466
  hessian_block                6       7          -0.490064          -0.717736          -1.127854           0.137606           0.38050
  hessian_block                6       8           0.806879           1.093326           1.321190           0.747317           0.73692
  hessian_block                6       9           0.070853           0.154811          -0.004952           0.994717           1.80489
  hessian_block                6      10          -3.075105          -2.694312          -5.173920          -2.925675          -3.79534
  hessian_block                6      11           1.123670           1.270267           1.694685           1.044498           1.33447
  hessian_block                6      12           1.153296           0.524857           1.146616           0.206225           0.24679
  hessian_block                7       7           5.768758           0.524325           1.004126           0.524325           5.87846
  hessian_block                7       8          -0.639060           0.061008          -0.092568          -0.044564          -0.19055
  hessian_block                7       9           0.303503           0.554092          -0.240905          -1.154114          -0.45967
  hessian_block                7      10           0.845272          -0.433511          -0.746160           0.955304          -0.80923
  hessian_block                7      11          -2.375116           0.419076          -1.454831          -0.076949          -1.73614
  hessian_block                7      12           0.146631          -0.040414           0.828831          -0.725593           0.38066
  hessian_block                8       8           5.084361           0.070677          -1.392967           0.070677           5.82362
  hessian_block                8       9           0.308385          -0.517227          -0.203557           0.834411           0.45087
  hessian_block                8      10          -0.833572          -0.705079           0.852371          -1.164951          -0.78814
  hessian_block                8      11           1.016499           0.016667          -0.815738           0.535608           0.93882
  hessian_block                8      12          -0.630375           1.294162           1.610207           1.324072          -1.45507
  hessian_block                9       9           5.059555          -0.508258          -0.799425          -0.508258           7.03657
  hessian_block                9      10          -0.049776          -0.669083          -0.492466          -0.252417          -1.43621
  hessian_block                9      11          -0.111968           1.577455          -0.082294          -0.630722           1.40556
  hessian_block                9      12           0.092313          -0.038601           0.964165           0.215998           0.11966
  hessian_block               10      10           7.088702           2.307197           3.240945           2.307197           8.28549
  hessian_block               10      11          -1.230242          -1.268602          -0.885732          -1.021722          -1.35802
  hessian_block               10      12          -1.078566          -0.469360          -0.771443          -0.756590          -0.77256
  hessian_block               11      11           6.311445           1.320460           0.983162           1.320460           6.58097
  hessian_block               11      12           0.259414           0.269433          -0.751690           0.688824          -0.05107
  hessian_block               12      12           5.267277          -0.000982          -0.476091          -0.000982           5.73306
  hessian_block_lv             1       1          26.802482          -1.092860           5.578892          -1.092860          25.69001
  hessian_block_lv_atom        1       1           0.017805           0.291513          -0.154102          -0.274199          -0.36665
  hessian_block_lv_atom        1       2          -0.679631          -1.038450           0.232162           0.394543           0.01234
  hessian_block_lv_atom        1       3          -0.571096          -1.041620           0.438536           0.588366           0.80941
  hessian_block_lv_atom        1       4          -0.265257          -0.262205          -0.053912           1.222368           1.13201
  hessian_block_lv_atom        1       5           0.655474           0.664263           0.172832           0.591827          -0.07428
  hessian_block_lv_atom        1       6          -0.027638          -0.081481          -0.854305          -1.397890          -0.96284
  hessian_block_lv_atom        1       7          -0.492419          -1.211084           0.451635          -1.277568          -1.24839
  hessian_block_lv_atom        1       8          -0.030938           0.758499          -0.583950          -0.327626          -0.54308
  hessian_block_lv_atom        1       9           0.192192           0.450255          -0.208813          -1.108999          -0.64467
  hessian_block_lv_atom        1      10           0.050693          -0.122041           0.944527           1.528198           0.57421
  hessian_block_lv_atom        1      11           0.605967           1.420892          -0.588959           0.165433           0.81841
  hessian_block_lv_atom        1      12           0.544846           0.171459           0.204349          -0.104453           0.49354
  symmetry_n_params 39 3 36
  symmetry_params a1 b2 c3 x0 x1 x2 x3 x4 x5 x6 x7 x8 x9 x10 x11 x12 x13 x14 x15 x16 x17 x18 x19 x20 x21 x22 x23 x24 x25 x26 x27 x28 x
  symmetry_lv a1 , 0 , 0
  symmetry_lv 0 , b2 , 0
  symmetry_lv 0 , 0 , c3
  symmetry_frac x0 , x1 , x2
  symmetry_frac x3 , x4 , x5
  symmetry_frac x6 , x7 , x8
  symmetry_frac x9 , x10 , x11
  symmetry_frac x12 , x13 , x14
  symmetry_frac x15 , x16 , x17
  symmetry_frac x18 , x19 , x20
  symmetry_frac x21 , x22 , x23
  symmetry_frac x24 , x25 , x26
  symmetry_frac x27 , x28 , x29
  symmetry_frac x30 , x31 , x32
  symmetry_frac x33 , x34 , x35
  
  -----------------------------------------------------------------------
  Completed first pass over input file geometry.in .
  -----------------------------------------------------------------------
  

  Basic array size parameters:
  | Number of species                 :        2
  | Number of atoms                   :       12
  | Number of lattice vectors         :        3
  | Max. basis fn. angular momentum   :        4
  | Max. atomic/ionic basis occupied n:        5
  | Max. number of basis fn. types    :        3
  | Max. radial fns per species/type  :       10
  | Max. logarithmic grid size        :     1444
  | Max. radial integration grid size :      125
  | Max. angular integration grid size:      434
  | Max. angular grid division number :        8
  | Radial grid for Hartree potential :     1444
  | Number of spin channels           :        1

------------------------------------------------------------
          Reading file control.in.
------------------------------------------------------------
  XC: Using PBE gradient-corrected functionals.
  Using libMBD for calculating MBD and TS energies
  Spin treatment: No spin polarisation.
  Found k-point grid:         8         8         7
  Scalar relativistic treatment of kinetic energy: on-site free-atom approximation to ZORA.
  Max energy increase before discarding BFGS move:   0.100000E-01 eV
  Assuming qualitatively harmonic for steps shorter than   0.150000E-01 A.
  S.C.F. convergence parameters will be adjusted in iteration number     3 of each new s.c.f. cycle.
  Geometry relaxation: Modified BFGS - TRM (trust radius method) for lattice optimization.
  Convergence accuracy for geometry relaxation: Maximum force <   0.100000E-01 eV/A.
 
  Reading configuration options for species Pd                  .
  | Found nuclear charge :  46.0000
  | Found atomic mass :    106.420000000000      amu
  | Found l_max for Hartree potential  :   6
  | Found cutoff potl. onset [A], width [A], scale factor :    4.00000    2.00000    1.00000
  | Threshold for basis-dependent cutoff potential is   0.100000E-03
  | Found data for basic radial integration grid :    62 points, outermost radius =    7.000 A
  | Found multiplier for basic radial grid :   2
  | Found angular grid specification: user-specified.
  | Specified grid contains     6 separate shells.
  | Check grid settings after all constraints further below.
  | Found free-atom valence shell :  5 s   1.000
  | Found free-atom valence shell :  4 p   6.000
  | Found free-atom valence shell :  4 d   9.000
  | Found free-ion valence shell :  5 s   0.000
  | Found free-ion valence shell :  4 p   6.000
  | Found free-ion valence shell :  4 d   8.000
  | Found ionic basis function :  5 p , default cutoff radius.
  | Found hydrogenic basis function :  4 f   8.000
  | Found hydrogenic basis function :  5 g  10.000
  | Found hydrogenic basis function :  3 s   2.600
  | Found hydrogenic basis function :  3 d   2.500
  Species Pd                  : Missing cutoff potential type.
  Defaulting to exp(1/x)/(1-x)^2 type cutoff potential.
  Species Pd: No 'logarithmic' tag. Using default grid for free atom:
  | Default logarithmic grid data [bohr] : 0.1000E-03 0.1000E+03 0.1012E+01
  | Will include ionic basis functions of  2.0-fold positive Pd                   ion.
  Species Pd: On-site basis accuracy parameter (for Gram-Schmidt orthonormalisation) not specified.
  Using default value basis_acc =  0.1000000E-03.
  Species Pd                  : Using default innermost maximum threshold i_radial=  2 for radial functions.
  Species Pd                  : Default cutoff onset for free atom density etc. : 0.40000000E+01 AA.
  Species Pd                  : Basic radial grid will be enhanced according to radial_multiplier =   2, to contain   125 grid points.
 
  Reading configuration options for species Se                  .
  | Found nuclear charge :  34.0000
  | Found atomic mass :    78.9600000000000      amu
  | Found l_max for Hartree potential  :   6
  | Found cutoff potl. onset [A], width [A], scale factor :    4.00000    2.00000    1.00000
  | Threshold for basis-dependent cutoff potential is   0.100000E-03
  | Found data for basic radial integration grid :    55 points, outermost radius =    7.000 A
  | Found multiplier for basic radial grid :   2
  | Found angular grid specification: user-specified.
  | Specified grid contains     5 separate shells.
  | Check grid settings after all constraints further below.
  | Found free-atom valence shell :  4 s   2.000
  | Found free-atom valence shell :  4 p   4.000
  | Found free-atom valence shell :  3 d  10.000
  | Found free-ion valence shell :  4 s   1.000
  | Found free-ion valence shell :  4 p   3.000
  | Found free-ion valence shell :  3 d  10.000
  | Found hydrogenic basis function :  3 d   4.300
  | Found hydrogenic basis function :  2 p   1.600
  | Found hydrogenic basis function :  4 f   7.200
  | Found ionic basis function :  4 s , default cutoff radius.
  Species Se                  : Missing cutoff potential type.
  Defaulting to exp(1/x)/(1-x)^2 type cutoff potential.
  Species Se: No 'logarithmic' tag. Using default grid for free atom:
  | Default logarithmic grid data [bohr] : 0.1000E-03 0.1000E+03 0.1012E+01
  | Will include ionic basis functions of  2.0-fold positive Se                   ion.
  Species Se: On-site basis accuracy parameter (for Gram-Schmidt orthonormalisation) not specified.
  Using default value basis_acc =  0.1000000E-03.
  Species Se                  : Using default innermost maximum threshold i_radial=  2 for radial functions.
  Species Se                  : Default cutoff onset for free atom density etc. : 0.40000000E+01 AA.
  Species Se                  : Basic radial grid will be enhanced according to radial_multiplier =   2, to contain   111 grid points.
 
  Finished reading input file 'control.in'. Consistency checks are next.
 
  MPI_IN_PLACE appears to work with this MPI implementation.
  | Keeping use_mpi_in_place .true. (see manual).
  Target number of points in a grid batch is not set. Defaulting to  100
  Method for grid partitioning is not set. Defaulting to parallel hash+maxmin partitioning.
  Batch size limit is not set. Defaulting to    200
  By default, will store active basis functions for each batch.
  If in need of memory, prune_basis_once .false. can be used to disable this option.
  communication_type for Hartree potential was not specified.
  Defaulting to calc_hartree .
  Defaulting to Pulay charge density mixer.
  Pulay mixer: Number of relevant iterations not set.
  Defaulting to    8 iterations.
  Pulay mixer: Number of initial linear mixing iterations not set.
  Defaulting to    0 iterations.
  Work space size for distributed Hartree potential not set.
  Defaulting to   0.200000E+03 MB.
  Mixing parameter for charge density mixing has not been set.
  Using default: charge_mix_param =     0.0500.
  The mixing parameter will be adjusted in iteration number     3 of each s.c.f. cycle (i.e., each geometry step).
  Algorithm-dependent basis array size parameters:
  | n_max_pulay                         :        8
  Maximum number of self-consistency iterations not provided.
  Presetting  1000 iterations.
  Presetting      1001 iterations before the initial mixing cycle
  is restarted anyway using the sc_init_iter criterion / keyword.
  Presetting a factor      1.000 between actual scf density residual
  and density convergence criterion sc_accuracy_rho below which sc_init_iter
  takes no effect.
 * No s.c.f. convergence criteria (sc_accuracy_*) were provided in control.in.
 * The run will proceed with a reasonable default guess, but please check whether.
 * the s.c.f. cycles seem to take too much or too little time.
  No maximum number of relaxation steps, defaulting to     1000
  Using explicit Hessian from geometry.in.
  Maximum energy tolerance by which TRM/BFGS trajectory may increase over multiple steps:   0.300000E-02
  No trust radius initializer. Defaulting to   0.200000E+00 A.
  Unit cell relaxation: Unit cell will be relaxed fully.
  Unit cell relaxation: Analytical stress will be used.
  Analytical stress will be computed.
  Analytical stress calculation: Only the upper triangle is calculated.
                                 Final output is symmetrized.
  Analytical stress calculation: scf convergence accuracy of stress not set.
                                 Analytical stress self-consistency will not be checked explicitly.
                                 Be sure to set other criteria like sc_accuracy_rho tight enough.
 * Notice: The s.c.f. convergence criterion sc_accuracy_rho was not provided.
 * We used to stop in this case, and ask the user to provide reasonable
 * scf convergence criteria. However, this led some users to employ criteria
 * that led to extremely long run times, e.g., for simple relaxation.
 * We now preset a default value for sc_accuracy_rho if it is not set.
 * You may still wish to check if this setting is too tight or too loose for your needs.
 * Based on n_atoms, FHI-aims chose sc_accuracy_rho =  0.141421E-05 .
  Force calculation: scf convergence accuracy of forces not set.
  Defaulting to 'sc_accuracy_forces not_checked'.
  Handling of forces: Unphysical translation and rotation will be removed from forces.
  No accuracy limit for integral partition fn. given. Defaulting to  0.1000E-14.
  No threshold value for u(r) in integrations given. Defaulting to  0.1000E-05.
  No occupation type (smearing scheme) given. Defaulting to Gaussian broadening, width =  0.1000E-01 eV.
  The width will be adjusted in iteration number     3 of each s.c.f. cycle (i.e., each geometry step).
  S.C.F. convergence parameters will be adjusted in iteration number     3 of the first full s.c.f. cycle only.
  No accuracy for occupation numbers given. Defaulting to  0.1000E-12.
  No threshold value for occupation numbers given. Defaulting to  0.0000E+00.
  No accuracy for fermi level given. Defaulting to  0.1000E-19.
  Maximum # of iterations to find E_F not set. Defaulting to  200.
  Preferred method for the eigenvalue solver ('KS_method') not specified in 'control.in'.
  Defaulting to serial version, LAPACK (via ELSI), since more k-points than CPUs available.
  Will not use alltoall communication since running on < 1024 CPUs.
  Threshold for basis singularities not set.
  Default threshold for basis singularities:  0.1000E-04
  partition_type (choice of integration weights) for integrals was not specified.
  | Using a version of the partition function of Stratmann and coworkers ('stratmann_sparse').
  | At each grid point, the set of atoms used to build the partition table is smoothly restricted to
  | only those atoms whose free-atom density would be non-zero at that grid point.
  Partitioning for Hartree potential was not defined. Using partition_type for integrals.
  | Adjusted default value of keyword multip_moments_threshold to:       0.10000000E-11
  | This value may affect high angular momentum components of the Hartree potential in periodic systems.
  Angular momentum expansion for Kerker preconditioner not set explicitly.
  | Using default value of   0
  No explicit requirement for turning off preconditioner.
  | By default, it will be turned off when the charge convergence reaches
  | sc_accuracy_rho  =   0.141421E-05
  No special mixing parameter while Kerker preconditioner is on.
  Using default: charge_mix_param =     0.0500.
  No q(lm)/r^(l+1) cutoff set for long-range Hartree potential.
  | Using default value of  0.100000E-09 .
  | Verify using the multipole_threshold keyword.
  Defaulting to new monopole extrapolation.
  Density update method: automatic selection selected.
  Using density matrix based charge density update.
  Using density matrix based charge density update.
  Using packed matrix style: index .
  Geometry relaxation: A file "geometry.in.next_step" is written out by default after each step.
  | This file contains the geometry of the current relaxation step as well as
  | the current Hessian matrix needed to restart the relaxation algorithm.
  | If you do not want part or all of this information, use the keywords
  | "write_restart_geometry" or "hessian_to_restart_geometry" to switch the output off.
  Defaulting to use time-reversal symmetry for k-point grid.
  Charge integration errors on the 3D integration grid will be compensated
  by explicit normalization and distribution of residual charges.
  Use the "compensate_multipole_errors" flag to change this behaviour.
------------------------------------------------------------


------------------------------------------------------------
          Reading geometry description geometry.in.
------------------------------------------------------------
  Input structure read successfully.
  The structure contains       12 atoms,  and a total of        456.000 electrons.

  Input geometry:
  | Unit cell:
  |        5.83681527        0.00000000        0.00000000
  |        0.00000000        5.94976887        0.00000000
  |        0.00000000        0.00000000        7.52487887
  | Atomic structure:
  |       Atom                x [A]            y [A]            z [A]
  |    1: Species Pd            2.92572945        0.00422434        0.00394597
  |    2: Species Pd            0.00401672        0.00426253        3.77390539
  |    3: Species Pd            0.00462889        2.98251704        0.00413552
  |    4: Species Pd            2.92632802        2.98255601        3.77370591
  |    5: Species Se            3.57792906        0.70743906        3.03945878
  |    6: Species Se            5.19601858        5.25804327        6.80478619
  |    7: Species Se            0.65610870        2.27978853        4.50643858
  |    8: Species Se            2.27405060        3.68569696        0.73836166
  |    9: Species Se            2.27424322        5.25808920        4.50644219
  |   10: Species Se            0.65631246        0.70751897        0.73847792
  |   11: Species Se            5.19591620        3.68564252        3.03947977
  |   12: Species Se            3.57784180        2.27975931        6.80490057

  Lattice parameters for 3D lattice (in Angstroms) :     5.836815    5.949769    7.524879
  Angle(s) between unit vectors (in degrees)       :    90.000000   90.000000   90.000000

  | The smallest distance between any two atoms is         2.40162564 AA.
  | The first atom of this pair is atom number                      6 .
  | The second atom of this pair is atom number                    10 .
  | Wigner-Seitz cell of the first atom image           0     0     0 .
  | (The Wigner-Seitz cell of the second atom is 0 0 0  by definition.)

  Symmetry information by spglib:
  | Precision set to  0.1E-04
  | Number of Operations  : 1
  | Space group           : 1
  | International         : P1
  | Schoenflies           : C1^1

  Quantities derived from the lattice vectors:
  | Reciprocal lattice vector 1:  1.076475  0.000000  0.000000
  | Reciprocal lattice vector 2:  0.000000  1.056039  0.000000
  | Reciprocal lattice vector 3:  0.000000  0.000000  0.834988
  | Unit cell volume                               :   0.261322E+03  A^3

  Range separation radius for Ewald summation (hartree_convergence_parameter):      4.01024655 bohr.

  Fractional coordinates:
                         L1                L2                L3
       atom_frac         0.50125442        0.00071000        0.00052439  Pd
       atom_frac         0.00068817        0.00071642        0.50152374  Pd
       atom_frac         0.00079305        0.50128284        0.00054958  Pd
       atom_frac         0.50135697        0.50128939        0.50149723  Pd
       atom_frac         0.61299337        0.11890194        0.40392129  Se
       atom_frac         0.89021467        0.88373908        0.90430508  Se
       atom_frac         0.11240868        0.38317262        0.59887191  Se
       atom_frac         0.38960469        0.61946893        0.09812273  Se
       atom_frac         0.38963769        0.88374680        0.59887239  Se
       atom_frac         0.11244359        0.11891537        0.09813818  Se
       atom_frac         0.89019713        0.61945978        0.40392408  Se
       atom_frac         0.61297842        0.38316771        0.90432028  Se

  Number of empty states per atom not set in control.in - providing a guess from actual geometry.
  | Total number of empty states used during s.c.f. cycle:       66
  If you use a very high smearing, use empty_states (per atom!) in control.in to increase this value.

  Structure-dependent array size parameters: 
  | Maximum number of distinct radial functions  :       27
  | Maximum number of basis functions            :      468
  | Number of Kohn-Sham states (occupied + empty):      294
------------------------------------------------------------

------------------------------------------------------------
          Preparing all fixed parts of the calculation.
------------------------------------------------------------
  Determining machine precision:
    2.225073858507201E-308
  Setting up grids for atomic and cluster calculations.

  Creating wave function, potential, and density for free atoms.

  Species: Pd

  List of occupied orbitals and eigenvalues:
    n    l              occ      energy [Ha]    energy [eV]
    1    0           2.0000      -913.269104    -24851.3168
    2    0           2.0000      -130.434372     -3549.2998
    3    0           2.0000       -23.521804      -640.0609
    4    0           2.0000        -3.256918       -88.6253
    5    0           1.0000        -0.157260        -4.2793
    2    1           6.0000      -116.910756     -3181.3035
    3    1           6.0000       -19.103344      -519.8284
    4    1           6.0000        -1.998052       -54.3697
    3    2          10.0000       -12.098182      -329.2083
    4    2           9.0000        -0.243389        -6.6230


  Species: Se

  List of occupied orbitals and eigenvalues:
    n    l              occ      energy [Ha]    energy [eV]
    1    0           2.0000      -466.337810    -12689.6975
    2    0           2.0000       -59.202598     -1610.9847
    3    0           2.0000        -7.847116      -213.5309
    4    0           2.0000        -0.634372       -17.2621
    2    1           6.0000       -52.061107     -1416.6548
    3    1           6.0000        -5.620941      -152.9536
    4    1           4.0000        -0.238469        -6.4891
    3    2          10.0000        -1.951949       -53.1152

  Creating fixed part of basis set: Ionic, confined, hydrogenic.
 
  Pd                   ion:

  List of free ionic orbitals and eigenvalues:
    n    l      energy [Ha]    energy [eV]
    1    0      -914.099884    -24873.9234
    2    0      -131.248265     -3571.4470
    3    0       -24.332473      -662.1203
    4    0        -4.059276      -110.4585
    2    1      -117.724296     -3203.4411
    3    1       -19.913908      -541.8850
    4    1        -2.795328       -76.0648
    3    2       -12.908733      -351.2645
    4    2        -1.004248       -27.3270


  List of ionic basis orbitals and eigenvalues:
    n    l      energy [Ha]    energy [eV]    outer radius [A]
    5    1        -0.516938       -14.0666       5.427025

 
  Pd                   hydrogenic:
 
  List of hydrogenic basis orbitals: 
    n    l      effective z      eigenvalue [eV]  inner max. [A]     outer max. [A]     outer radius [A]   
    4    3         8.000000       -54.4226           1.054686           1.054686           4.629581
    5    4        10.000000       -54.4226           1.330451           1.330451           5.043202
    3    0         2.600000        -9.8948           0.150992           2.606197           5.493778
    3    2         2.500000        -9.3396           1.873517           1.873517           5.493778
 
 
  Se                   ion:

  List of free ionic orbitals and eigenvalues:
    n    l      energy [Ha]    energy [eV]
    1    0      -467.261007    -12714.8189
    2    0       -60.104893     -1635.5374
    3    0        -8.743714      -237.9286
    4    0        -1.414053       -38.4783
    2    1       -52.964156     -1441.2280
    3    1        -6.516916      -177.3343
    4    1        -0.961869       -26.1738
    3    2        -2.844511       -77.4031


  List of ionic basis orbitals and eigenvalues:
    n    l      energy [Ha]    energy [eV]    outer radius [A]
    4    0        -1.414046       -38.4782       4.083166

 
  Se                   hydrogenic:
 
  List of hydrogenic basis orbitals: 
    n    l      effective z      eigenvalue [eV]  inner max. [A]     outer max. [A]     outer radius [A]   
    3    2         4.300000       -27.9518           1.103845           1.103845           5.278265
    2    1         1.600000        -8.6828           1.326010           1.326010           5.475439
    4    3         7.200000       -44.0822           1.173422           1.173422           4.965294
 

  Adding cutoff potential to free-atom effective potential.
  Creating atomic-like basis functions for current effective potential.

  Species Pd                  :

  List of atomic basis orbitals and eigenvalues:
    n    l      energy [Ha]    energy [eV]    outer radius [A]
    1    0      -913.269104    -24851.3168       0.223280
    2    0      -130.434372     -3549.2998       0.615909
    3    0       -23.521804      -640.0609       1.414312
    4    0        -3.256918       -88.6253       3.581357
    5    0        -0.157260        -4.2793       5.427025
    2    1      -116.910756     -3181.3035       0.631154
    3    1       -19.103344      -519.8284       1.540671
    4    1        -1.998052       -54.3697       4.408641
    3    2       -12.098182      -329.2083       1.806051
    4    2        -0.243389        -6.6230       5.361084


  Species Se                  :

  List of atomic basis orbitals and eigenvalues:
    n    l      energy [Ha]    energy [eV]    outer radius [A]
    1    0      -466.337810    -12689.6975       0.309561
    2    0       -59.202598     -1610.9847       0.885812
    3    0        -7.847116      -213.5309       2.355489
    4    0        -0.634372       -17.2621       5.214131
    2    1       -52.061107     -1416.6548       0.907737
    3    1        -5.620941      -152.9536       2.694529
    4    1        -0.238469        -6.4891       5.408909
    3    2        -1.951949       -53.1152       4.083166

  Assembling full basis from fixed parts.
  | Species Pd :   atomic orbital   1 s accepted.
  | Species Pd :   atomic orbital   2 s accepted.
  | Species Pd :   atomic orbital   3 s accepted.
  | Species Pd :   atomic orbital   4 s accepted.
  | Species Pd :   atomic orbital   5 s accepted.
  | Species Pd :    hydro orbital   3 s accepted.
  | Species Pd :   atomic orbital   2 p accepted.
  | Species Pd :   atomic orbital   3 p accepted.
  | Species Pd :   atomic orbital   4 p accepted.
  | Species Pd :    ionic orbital   5 p accepted.
  | Species Pd :   atomic orbital   3 d accepted.
  | Species Pd :   atomic orbital   4 d accepted.
  | Species Pd :    hydro orbital   3 d accepted.
  | Species Pd :    hydro orbital   4 f accepted.
  | Species Pd :    hydro orbital   5 g accepted.
  | Species Se :   atomic orbital   1 s accepted.
  | Species Se :   atomic orbital   2 s accepted.
  | Species Se :   atomic orbital   3 s accepted.
  | Species Se :    ionic orbital   4 s accepted.
  | Species Se :   atomic orbital   4 s accepted.
  | Species Se :   atomic orbital   2 p accepted.
  | Species Se :   atomic orbital   3 p accepted.
  | Species Se :   atomic orbital   4 p accepted.
  | Species Se :    hydro orbital   2 p accepted.
  | Species Se :   atomic orbital   3 d accepted.
  | Species Se :    hydro orbital   3 d accepted.
  | Species Se :    hydro orbital   4 f accepted.
 
  Basis size parameters after reduction:
  | Total number of radial functions:       27
  | Total number of basis functions :      468
 
  Per-task memory consumption for arrays in subroutine allocate_ext:
  |           9.993344MB.
  Testing on-site integration grid accuracy.
  |  Species  Function  <phi|h_atom|phi> (log., in eV)  <phi|h_atom|phi> (rad., in eV)
           1        1             -24851.3167505682             -24851.3148165635
           1        2              -3549.2998457785              -3549.2998098031
           1        3               -640.0608571327               -640.0608534886
           1        4                -88.6252603131                -88.6252593316
           1        5                 -4.2849374515                 -4.2849400622
           1        6                  4.9432123540                  4.9432188418
           1        7              -3181.3035399559              -3181.3035364574
           1        8               -519.8284281886               -519.8284264063
           1        9                -54.3697495804                -54.3697489261
           1       10                  0.8628369484                  0.8628370487
           1       11               -329.2082917394               -329.2082912864
           1       12                 -6.6230267036                 -6.6230265076
           1       13                  5.4924295291                  5.4924115607
           1       14                 25.0740861942                 25.0740861175
           1       15                 38.8271273823                 38.8271278029
           2       16             -12689.6974611609             -12689.6967666984
           2       17              -1610.9846578580              -1610.9846472470
           2       18               -213.5308789869               -213.5308777267
           2       19                -17.0464428502                -17.0464426496
           2       20                  6.7356859379                  6.7356842047
           2       21              -1416.6548010133              -1416.6548002108
           2       22               -152.9535734377               -152.9535727493
           2       23                 -6.4896265677                 -6.4896303794
           2       24                  5.2703037283                  5.2701679583
           2       25                -53.1152220964                -53.1152219035
           2       26                  7.6186674138                  7.6186665630
           2       27                 23.1072799052                 23.1072803137

  Preparing densities etc. for the partition functions (integrals / Hartree potential).

  Preparations completed.
  max(cpu_time)          :      0.549 s.
  Wall clock time (cpu1) :      0.597 s.
------------------------------------------------------------

------------------------------------------------------------
          Begin self-consistency loop: Initialization.

          Date     :  20200420, Time     :  113455.720
------------------------------------------------------------

  Initializing index lists of integration centers etc. from given atomic structure:
  Mapping all atomic coordinates to central unit cell.

  Initializing the k-points
  Using symmetry for reducing the k-points
  | k-points reduced from:      448 to      226
  | Number of k-points                             :       226
  The eigenvectors in the calculations are COMPLEX.
  | K-points in task   0:         9
  | K-points in task   1:        10
  | K-points in task   2:        10
  | K-points in task   3:        10
  | K-points in task   4:        10
  | K-points in task   5:        10
  | K-points in task   6:        10
  | K-points in task   7:        10
  | K-points in task   8:        10
  | K-points in task   9:        10
  | K-points in task  10:        10
  | K-points in task  11:         9
  | K-points in task  12:         9
  | K-points in task  13:         9
  | K-points in task  14:         9
  | K-points in task  15:         9
  | K-points in task  16:         9
  | K-points in task  17:         9
  | K-points in task  18:         9
  | K-points in task  19:         9
  | K-points in task  20:         9
  | K-points in task  21:         9
  | K-points in task  22:         9
  | K-points in task  23:         9
  | Number of basis functions in the Hamiltonian integrals :      5565
  | Number of basis functions in a single unit cell        :       468
  | Number of centers in hartree potential         :      1306
  | Number of centers in hartree multipole         :       764
  | Number of centers in electron density summation:       591
  | Number of centers in basis integrals           :       638
  | Number of centers in integrals                 :       235
  | Number of centers in hamiltonian               :       591
  | Consuming        303 KiB for k_phase.
  | Number of super-cells (origin) [n_cells]                     :         567
  | Number of super-cells (after PM_index) [n_cells]             :          86
  | Number of super-cells in hamiltonian [n_cells_in_hamiltonian]:          86
  | Size of matrix packed + index [n_hamiltonian_matrix_size] :     1284116

  Initializing relaxation algorithms.
  | Estimated reciprocal-space cutoff momentum G_max:         2.42138750 bohr^-1 .
  | Reciprocal lattice points for long-range Hartree potential:     410
  Partitioning the integration grid into batches with parallel hashing+maxmin method.
  | Number of batches:     4182
  | Maximal batch size:     110
  | Minimal batch size:      49
  | Average batch size:      91.855
  | Standard deviation of batch sizes:      11.593

  Integration load balanced across    24 MPI tasks.
  Work distribution over tasks is as follows:
  Task     0 has      16023 integration points.
  Task     1 has      15993 integration points.
  Task     2 has      15998 integration points.
  Task     3 has      15967 integration points.
  Task     4 has      16025 integration points.
  Task     5 has      15965 integration points.
  Task     6 has      15994 integration points.
  Task     7 has      16036 integration points.
  Task     8 has      15999 integration points.
  Task     9 has      16039 integration points.
  Task    10 has      16020 integration points.
  Task    11 has      15966 integration points.
  Task    12 has      15994 integration points.
  Task    13 has      16013 integration points.
  Task    14 has      15980 integration points.
  Task    15 has      15980 integration points.
  Task    16 has      16020 integration points.
  Task    17 has      16016 integration points.
  Task    18 has      16037 integration points.
  Task    19 has      16022 integration points.
  Task    20 has      16016 integration points.
  Task    21 has      16027 integration points.
  Task    22 has      16010 integration points.
  Task    23 has      15996 integration points.
  Initializing partition tables, free-atom densities, potentials, etc. across the integration grid (initialize_grid_storage).
  | initialize_grid_storage: Actual outermost partition radius vs. multipole_radius_free
  | (-- VB: in principle, multipole_radius_free should be larger, hence this output)
  | Species        1: Confinement radius =              6.000000000000000 AA, multipole_radius_free =              6.058219618167466 AA.
  | Species        1: outer_partition_radius set to              6.058219618167466 AA .
  | Species        2: Confinement radius =              6.000000000000000 AA, multipole_radius_free =              6.037996416842453 AA.
  | Species        2: outer_partition_radius set to              6.037996416842453 AA .
  | The sparse table of interatomic distances needs       2880.52 kbyte instead of      3256.35 kbyte of memory.
  | Net number of integration points:   384136
  | of which are non-zero points    :   322309
  | Numerical average free-atom electrostatic potential    :    -16.94630236 eV
  Renormalizing the initial density to the exact electron count on the 3D integration grid.
  | Initial density: Formal number of electrons (from input files) :     456.0000000000
  | Integrated number of electrons on 3D grid     :     456.0000270605
  | Charge integration error                      :       0.0000270605
  | Normalization factor for density and gradient :       0.9999999407
  Renormalizing the free-atom superposition density to the exact electron count on the 3D integration grid.
  | Formal number of electrons (from input files) :     456.0000000000
  | Integrated number of electrons on 3D grid     :     456.0000270605
  | Charge integration error                      :       0.0000270605
  | Normalization factor for density and gradient :       0.9999999407
  Obtaining max. number of non-zero basis functions in each batch (get_n_compute_maxes).
  | Maximal number of non-zero basis functions:     1032 in task     0
  | Maximal number of non-zero basis functions:     1004 in task     1
  | Maximal number of non-zero basis functions:     1005 in task     2
  | Maximal number of non-zero basis functions:     1021 in task     3
  | Maximal number of non-zero basis functions:     1025 in task     4
  | Maximal number of non-zero basis functions:     1017 in task     5
  | Maximal number of non-zero basis functions:     1008 in task     6
  | Maximal number of non-zero basis functions:     1018 in task     7
  | Maximal number of non-zero basis functions:     1009 in task     8
  | Maximal number of non-zero basis functions:     1009 in task     9
  | Maximal number of non-zero basis functions:     1022 in task    10
  | Maximal number of non-zero basis functions:     1023 in task    11
  | Maximal number of non-zero basis functions:     1005 in task    12
  | Maximal number of non-zero basis functions:     1032 in task    13
  | Maximal number of non-zero basis functions:     1012 in task    14
  | Maximal number of non-zero basis functions:     1017 in task    15
  | Maximal number of non-zero basis functions:     1011 in task    16
  | Maximal number of non-zero basis functions:     1003 in task    17
  | Maximal number of non-zero basis functions:     1008 in task    18
  | Maximal number of non-zero basis functions:     1024 in task    19
  | Maximal number of non-zero basis functions:     1010 in task    20
  | Maximal number of non-zero basis functions:     1000 in task    21
  | Maximal number of non-zero basis functions:     1020 in task    22
  | Maximal number of non-zero basis functions:     1024 in task    23
  Allocating       18.895 MB for KS_eigenvector_complex
  Integrating Hamiltonian matrix: batch-based integration.
  Time summed over all CPUs for integration: real work       63.116 s, elapsed       63.985 s
  Integrating overlap matrix.
  Time summed over all CPUs for integration: real work       45.720 s, elapsed       46.326 s
  Decreasing sparse matrix size:
  | Tolerance:  0.1000E-12
  Hamiltonian matrix
  | Array has  1111326 nonzero elements out of  1284116 elements
  | Sparsity factor is 0.135
  Overlap matrix
  | Array has  1026653 nonzero elements out of  1284116 elements
  | Sparsity factor is 0.200
  New size of hamiltonian matrix:     1111401

  Updating Kohn-Sham eigenvalues and eigenvectors using ELSI and the (modified) LAPACK eigensolver.
  Singularity check in k-point 24, task 0 (analysis for other k-points/tasks may follow below):
  Overlap matrix is not singular
  | Lowest and highest eigenvalues :  0.8061E-03,  0.6830E+01
  Finished singularity check of overlap matrix
  | Time :     0.099 s
  Starting LAPACK eigensolver
  Finished Cholesky decomposition
  | Time :     0.017 s
  Finished transformation to standard eigenproblem
  | Time :     0.021 s
  Finished solving standard eigenproblem
  | Time :     0.071 s
  Finished back-transformation of eigenvectors
  | Time :     0.009 s

  Obtaining occupation numbers and chemical potential using ELSI.
  | Chemical potential (Fermi level):    -4.64790608 eV
  Writing Kohn-Sham eigenvalues.
  K-point:       1 at    0.000000    0.000000    0.000000 (in units of recip. lattice)

  State    Occupation    Eigenvalue [Ha]    Eigenvalue [eV]
      1       2.00000        -913.279594       -24851.60219
      2       2.00000        -913.279577       -24851.60173
      3       2.00000        -913.279574       -24851.60166
      4       2.00000        -913.279454       -24851.59839
      5       2.00000        -466.350417       -12690.04050
      6       2.00000        -466.350359       -12690.03892
      7       2.00000        -466.350297       -12690.03725
      8       2.00000        -466.350294       -12690.03716
      9       2.00000        -466.350292       -12690.03710
     10       2.00000        -466.350271       -12690.03652
     11       2.00000        -466.350244       -12690.03580
     12       2.00000        -466.350213       -12690.03497
     13       2.00000        -130.445179        -3549.59393
     14       2.00000        -130.445162        -3549.59346
     15       2.00000        -130.445159        -3549.59338
     16       2.00000        -130.445038        -3549.59008
     17       2.00000        -116.921588        -3181.59828
     18       2.00000        -116.921579        -3181.59804
     19       2.00000        -116.921571        -3181.59781
     20       2.00000        -116.921568        -3181.59773
     21       2.00000        -116.921561        -3181.59756
     22       2.00000        -116.921559        -3181.59750
     23       2.00000        -116.921523        -3181.59652
     24       2.00000        -116.921506        -3181.59606
     25       2.00000        -116.921503        -3181.59598
     26       2.00000        -116.921447        -3181.59444
     27       2.00000        -116.921438        -3181.59420
     28       2.00000        -116.921383        -3181.59270
     29       2.00000         -59.215632        -1611.33933
     30       2.00000         -59.215572        -1611.33771
     31       2.00000         -59.215510        -1611.33601
     32       2.00000         -59.215507        -1611.33594
     33       2.00000         -59.215505        -1611.33587
     34       2.00000         -59.215483        -1611.33528
     35       2.00000         -59.215456        -1611.33455
     36       2.00000         -59.215425        -1611.33371
     37       2.00000         -52.074148        -1417.00967
     38       2.00000         -52.074124        -1417.00900
     39       2.00000         -52.074090        -1417.00809
     40       2.00000         -52.074073        -1417.00763
     41       2.00000         -52.074063        -1417.00736
     42       2.00000         -52.074028        -1417.00640
     43       2.00000         -52.074023        -1417.00627
     44       2.00000         -52.074022        -1417.00624
     45       2.00000         -52.074014        -1417.00602
     46       2.00000         -52.074001        -1417.00565
     47       2.00000         -52.074000        -1417.00565
     48       2.00000         -52.074000        -1417.00563
     49       2.00000         -52.073996        -1417.00552
     50       2.00000         -52.073974        -1417.00493
     51       2.00000         -52.073973        -1417.00490
     52       2.00000         -52.073953        -1417.00435
     53       2.00000         -52.073949        -1417.00426
     54       2.00000         -52.073947        -1417.00420
     55       2.00000         -52.073947        -1417.00420
     56       2.00000         -52.073943        -1417.00407
     57       2.00000         -52.073926        -1417.00362
     58       2.00000         -52.073916        -1417.00336
     59       2.00000         -52.073899        -1417.00290
     60       2.00000         -52.073869        -1417.00206
     61       2.00000         -23.533379         -640.37582
     62       2.00000         -23.533361         -640.37532
     63       2.00000         -23.533358         -640.37524
     64       2.00000         -23.533229         -640.37173
     65       2.00000         -19.115180         -520.15052
     66       2.00000         -19.115162         -520.15002
     67       2.00000         -19.115156         -520.14986
     68       2.00000         -19.115091         -520.14810
     69       2.00000         -19.115072         -520.14757
     70       2.00000         -19.115072         -520.14756
     71       2.00000         -19.115026         -520.14633
     72       2.00000         -19.114939         -520.14395
     73       2.00000         -19.114540         -520.13309
     74       2.00000         -19.114523         -520.13263
     75       2.00000         -19.114520         -520.13255
     76       2.00000         -19.114395         -520.12915
     77       2.00000         -12.109988         -329.52955
     78       2.00000         -12.109969         -329.52903
     79       2.00000         -12.109966         -329.52894
     80       2.00000         -12.109952         -329.52856
     81       2.00000         -12.109933         -329.52804
     82       2.00000         -12.109930         -329.52796
     83       2.00000         -12.109835         -329.52537
     84       2.00000         -12.109799         -329.52440
     85       2.00000         -12.109597         -329.51889
     86       2.00000         -12.109579         -329.51842
     87       2.00000         -12.109575         -329.51829
     88       2.00000         -12.109540         -329.51734
     89       2.00000         -12.109521         -329.51684
     90       2.00000         -12.109521         -329.51682
     91       2.00000         -12.109453         -329.51499
     92       2.00000         -12.109449         -329.51486
     93       2.00000         -12.109436         -329.51452
     94       2.00000         -12.109433         -329.51445
     95       2.00000         -12.109393         -329.51334
     96       2.00000         -12.109307         -329.51102
     97       2.00000          -7.861954         -213.93464
     98       2.00000          -7.861883         -213.93272
     99       2.00000          -7.861815         -213.93087
    100       2.00000          -7.861813         -213.93081
    101       2.00000          -7.861807         -213.93067
    102       2.00000          -7.861783         -213.93000
    103       2.00000          -7.861753         -213.92919
    104       2.00000          -7.861719         -213.92826
    105       2.00000          -5.636372         -153.37348
    106       2.00000          -5.636314         -153.37191
    107       2.00000          -5.636241         -153.36992
    108       2.00000          -5.636233         -153.36970
    109       2.00000          -5.636225         -153.36949
    110       2.00000          -5.636205         -153.36894
    111       2.00000          -5.636167         -153.36792
    112       2.00000          -5.636136         -153.36706
    113       2.00000          -5.636113         -153.36643
    114       2.00000          -5.636029         -153.36417
    115       2.00000          -5.635956         -153.36218
    116       2.00000          -5.635947         -153.36191
    117       2.00000          -5.635936         -153.36161
    118       2.00000          -5.635925         -153.36132
    119       2.00000          -5.635861         -153.35958
    120       2.00000          -5.635836         -153.35890
    121       2.00000          -5.635429         -153.34782
    122       2.00000          -5.635359         -153.34593
    123       2.00000          -5.635300         -153.34432
    124       2.00000          -5.635296         -153.34420
    125       2.00000          -5.635291         -153.34406
    126       2.00000          -5.635270         -153.34349
    127       2.00000          -5.635245         -153.34282
    128       2.00000          -5.635210         -153.34187
    129       2.00000          -3.274078          -89.09221
    130       2.00000          -3.274052          -89.09150
    131       2.00000          -3.274048          -89.09137
    132       2.00000          -3.273859          -89.08625
    133       2.00000          -2.020473          -54.97987
    134       2.00000          -2.020449          -54.97921
    135       2.00000          -2.020397          -54.97779
    136       2.00000          -2.020177          -54.97180
    137       2.00000          -2.019448          -54.95198
    138       2.00000          -2.019440          -54.95177
    139       2.00000          -2.019388          -54.95033
    140       2.00000          -2.019169          -54.94437
    141       2.00000          -2.013050          -54.77789
    142       2.00000          -2.013038          -54.77754
    143       2.00000          -2.013032          -54.77739
    144       2.00000          -2.012867          -54.77290
    145       2.00000          -1.969373          -53.58937
    146       2.00000          -1.969268          -53.58651
    147       2.00000          -1.969188          -53.58433
    148       2.00000          -1.969160          -53.58357
    149       2.00000          -1.968305          -53.56032
    150       2.00000          -1.968237          -53.55846
    151       2.00000          -1.968156          -53.55625
    152       2.00000          -1.968137          -53.55573
    153       2.00000          -1.967852          -53.54797
    154       2.00000          -1.967823          -53.54720
    155       2.00000          -1.967745          -53.54506
    156       2.00000          -1.967729          -53.54464
    157       2.00000          -1.967723          -53.54446
    158       2.00000          -1.967677          -53.54321
    159       2.00000          -1.967594          -53.54096
    160       2.00000          -1.967585          -53.54071
    161       2.00000          -1.967423          -53.53631
    162       2.00000          -1.967382          -53.53519
    163       2.00000          -1.967379          -53.53509
    164       2.00000          -1.967329          -53.53375
    165       2.00000          -1.967317          -53.53341
    166       2.00000          -1.967302          -53.53300
    167       2.00000          -1.967291          -53.53271
    168       2.00000          -1.967264          -53.53197
    169       2.00000          -1.967261          -53.53189
    170       2.00000          -1.967247          -53.53152
    171       2.00000          -1.967241          -53.53134
    172       2.00000          -1.967233          -53.53113
    173       2.00000          -1.967191          -53.53000
    174       2.00000          -1.967181          -53.52973
    175       2.00000          -1.967172          -53.52948
    176       2.00000          -1.967148          -53.52881
    177       2.00000          -1.966738          -53.51767
    178       2.00000          -1.966697          -53.51655
    179       2.00000          -1.966632          -53.51478
    180       2.00000          -1.966620          -53.51444
    181       2.00000          -1.966385          -53.50806
    182       2.00000          -1.966352          -53.50716
    183       2.00000          -1.966283          -53.50528
    184       2.00000          -1.966277          -53.50512
    185       2.00000          -0.759301          -20.66164
    186       2.00000          -0.741525          -20.17792
    187       2.00000          -0.720487          -19.60545
    188       2.00000          -0.718720          -19.55736
    189       2.00000          -0.652606          -17.75831
    190       2.00000          -0.640607          -17.43182
    191       2.00000          -0.638928          -17.38611
    192       2.00000          -0.627751          -17.08197
    193       2.00000          -0.418690          -11.39314
    194       2.00000          -0.410860          -11.18008
    195       2.00000          -0.388690          -10.57678
    196       2.00000          -0.376690          -10.25026
    197       2.00000          -0.370375          -10.07842
    198       2.00000          -0.368634          -10.03105
    199       2.00000          -0.367465           -9.99922
    200       2.00000          -0.366393           -9.97005
    201       2.00000          -0.365428           -9.94381
    202       2.00000          -0.363615           -9.89446
    203       2.00000          -0.360627           -9.81317
    204       2.00000          -0.351923           -9.57630
    205       2.00000          -0.340778           -9.27303
    206       2.00000          -0.330242           -8.98635
    207       2.00000          -0.323167           -8.79382
    208       2.00000          -0.315756           -8.59215
    209       2.00000          -0.314868           -8.56800
    210       2.00000          -0.306647           -8.34429
    211       2.00000          -0.288621           -7.85378
    212       2.00000          -0.286263           -7.78962
    213       2.00000          -0.285267           -7.76252
    214       2.00000          -0.280254           -7.62611
    215       2.00000          -0.278917           -7.58973
    216       2.00000          -0.277249           -7.54432
    217       2.00000          -0.276437           -7.52223
    218       2.00000          -0.275800           -7.50490
    219       2.00000          -0.273644           -7.44623
    220       2.00000          -0.270460           -7.35958
    221       2.00000          -0.264936           -7.20929
    222       2.00000          -0.262787           -7.15079
    223       2.00000          -0.262677           -7.14782
    224       2.00000          -0.257034           -6.99425
    225       2.00000          -0.225272           -6.12996
    226       2.00000          -0.216109           -5.88062
    227       2.00000          -0.213744           -5.81627
    228       0.00000          -0.167852           -4.56749
    229       0.00000          -0.151435           -4.12075
    230       0.00000          -0.135692           -3.69237
    231       0.00000          -0.130257           -3.54447
    232       0.00000          -0.129631           -3.52744
    233       0.00000          -0.126223           -3.43470
    234       0.00000          -0.116165           -3.16102
    235       0.00000          -0.114585           -3.11802
    236       0.00000          -0.081777           -2.22528
    237       0.00000          -0.037874           -1.03060
    238       0.00000          -0.031667           -0.86169
    239       0.00000          -0.006025           -0.16394
    240       0.00000           0.017820            0.48491
    241       0.00000           0.023928            0.65111
    242       0.00000           0.024520            0.66722
    243       0.00000           0.054739            1.48954
    244       0.00000           0.089177            2.42663
    245       0.00000           0.104843            2.85291
    246       0.00000           0.110781            3.01451
    247       0.00000           0.119676            3.25655
    248       0.00000           0.121353            3.30219
    249       0.00000           0.126266            3.43586
    250       0.00000           0.126603            3.44505
    251       0.00000           0.135393            3.68423
    252       0.00000           0.150613            4.09839
    253       0.00000           0.162477            4.42123
    254       0.00000           0.173516            4.72162
    255       0.00000           0.176899            4.81365
    256       0.00000           0.189510            5.15684
    257       0.00000           0.190602            5.18653
    258       0.00000           0.195990            5.33317
    259       0.00000           0.218810            5.95412
    260       0.00000           0.232339            6.32226
    261       0.00000           0.248039            6.74948
    262       0.00000           0.257189            6.99848
    263       0.00000           0.266380            7.24857
    264       0.00000           0.280504            7.63289
    265       0.00000           0.281719            7.66598
[...]
  Finished Cholesky decomposition
  | Time :     0.011 s
  Finished transformation to standard eigenproblem
  | Time :     0.020 s
  Finished solving standard eigenproblem
  | Time :     0.070 s
  Finished back-transformation of eigenvectors
  | Time :     0.010 s

  Obtaining occupation numbers and chemical potential using ELSI.
  | Chemical potential (Fermi level):    -4.84624675 eV
  What follows are estimated values for band gap, HOMO, LUMO, etc.
  | They are estimated on a discrete k-point grid and not necessarily exact.
  | For converged numbers, create a DOS and/or band structure plot on a denser k-grid.

  Highest occupied state (VBM) at     -4.86108146 eV (relative to internal zero)
  | Occupation number:      1.32521441
  | K-point:     136 at    0.375000    0.500000    0.142857 (in units of recip. lattice)

  Lowest unoccupied state (CBM) at    -4.83528384 eV (relative to internal zero)
  | Occupation number:      0.75650188
  | K-point:      40 at    0.125000    0.250000    0.000000 (in units of recip. lattice)

  ESTIMATED overall HOMO-LUMO gap:      0.02579762 eV between HOMO at k-point 136 and LUMO at k-point 40
  | This appears to be an indirect band gap.
  | Smallest direct gap :      0.26645677 eV for k_point 140 at    0.125000    0.250000    0.000000 (in units of recip. lattice)
  However, this system has fractional occupation numbers. Since we use a finite k-point grid,
  this material is metallic within the approximate finite broadening function (occupation_type)
  applied to determine the occupation numbers.

  Total energy components:
  | Sum of eigenvalues            :      -23864.33886197 Ha     -649381.70061124 eV
  | XC energy correction          :       -1284.32655661 Ha      -34948.30375549 eV
  | XC potential correction       :        1672.90091170 Ha       45521.94993865 eV
  | Free-atom electrostatic energy:      -16511.28713558 Ha     -449294.98283605 eV
  | Hartree energy correction     :           7.14668891 Ha         194.47129987 eV
  | vdW energy correction         :           0.00000000 Ha           0.00000000 eV
  | Entropy correction            :          -0.00003536 Ha          -0.00096221 eV
  | ---------------------------
  | Total energy                  :      -39979.90495354 Ha    -1087908.56596426 eV
  | Total energy, T -> 0          :      -39979.90498890 Ha    -1087908.56692648 eV  <-- do not rely on this value for anything but (periodic) metals
  | Electronic free energy        :      -39979.90502426 Ha    -1087908.56788869 eV

  Derived energy quantities:
  | Kinetic energy                :       41145.64750460 Ha     1119630.03474907 eV
  | Electrostatic energy          :      -79841.22590153 Ha    -2172590.29695785 eV
  | Energy correction for multipole
  | error in Hartree potential    :          -0.00539596 Ha          -0.14683167 eV
  | Sum of eigenvalues per atom                           :      -54115.14171760 eV
  | Total energy (T->0) per atom                          :      -90659.04724387 eV  <-- do not rely on this value for anything but (periodic) metals
  | Electronic free energy per atom                       :      -90659.04732406 eV

  Self-consistency convergence accuracy:
  | Change of charge density      :  0.2761E-03
  | Change of sum of eigenvalues  : -0.1844E+00 eV
  | Change of total energy        : -0.2039E-05 eV

  End self-consistency iteration #    13       :  max(cpu_time)    wall_clock(cpu1)
  | Time for this iteration                    :       11.992 s          11.993 s
  | Charge density update                      :        5.281 s           5.281 s
  | Density mixing & preconditioning           :        0.873 s           0.874 s
  | Hartree multipole update                   :        0.004 s           0.004 s
  | Hartree multipole summation                :        1.753 s           1.752 s
  | Integration                                :        2.659 s           2.659 s
  | Solution of K.-S. eqns.                    :        1.419 s           1.420 s
  | Total energy evaluation                    :        0.002 s           0.002 s

  Partial memory accounting:
  | Current value for overall tracked memory usage:
  |   Minimum:       40.180 MB (on task  0)
  |   Maximum:       42.279 MB (on task  1)
  |   Average:       41.055 MB
  | Peak value for overall tracked memory usage:
  |   Minimum:       53.643 MB (on task 21 after allocating wave)
  |   Maximum:       56.193 MB (on task  4 after allocating wave)
  |   Average:       54.787 MB
  | Largest tracked array allocation so far:
  |   Minimum:       18.895 MB (KS_eigenvector_complex on task  0)
  |   Maximum:       20.995 MB (KS_eigenvector_complex on task  1)
  |   Average:       19.770 MB
  Note:  These values currently only include a subset of arrays which are explicitly tracked.
  The "true" memory usage will be greater.
------------------------------------------------------------

------------------------------------------------------------
          Begin self-consistency iteration #   14

  Date     :  20200420, Time     :  113739.550
------------------------------------------------------------
  Evaluating new KS density using the density matrix
  Evaluating density matrix
  Time summed over all CPUs for getting density from density matrix: real work      119.946 s, elapsed      122.161 s
  Integration grid: deviation in total charge (<rho> - N_e) =   2.085585E-10
  Pulay mixing of updated and previous charge densities.
  Renormalizing the density to the exact electron count on the 3D integration grid.
  | Formal number of electrons (from input files) :     456.0000000000
  | Integrated number of electrons on 3D grid     :     456.0000150035
  | Charge integration error                      :       0.0000150035
  | Normalization factor for density and gradient :       0.9999999671

  Evaluating partitioned Hartree potential by multipole expansion.
  | Original multipole sum: apparent total charge =   0.955407E-13
  | Sum of charges compensated after spline to logarithmic grids =   0.881672E-07
  | Analytical far-field extrapolation by fixed multipoles:
  | Hartree multipole sum: apparent total charge =   0.957897E-13
  Summing up the Hartree potential.
  Time summed over all CPUs for potential: real work       40.024 s, elapsed       41.589 s
  | RMS charge density error from multipole expansion :   0.760834E-02
  | Average real-space part of the electrostatic potential :     -0.00850826 eV

  Integrating Hamiltonian matrix: batch-based integration.
  Time summed over all CPUs for integration: real work       62.274 s, elapsed       63.108 s

  Updating Kohn-Sham eigenvalues and eigenvectors using ELSI and the (modified) LAPACK eigensolver.
  Starting LAPACK eigensolver
  Finished Cholesky decomposition
  | Time :     0.011 s
  Finished transformation to standard eigenproblem
  | Time :     0.020 s
  Finished solving standard eigenproblem
  | Time :     0.070 s
  Finished back-transformation of eigenvectors
  | Time :     0.009 s

  Obtaining occupation numbers and chemical potential using ELSI.
  | Chemical potential (Fermi level):    -4.84587598 eV
  What follows are estimated values for band gap, HOMO, LUMO, etc.
  | They are estimated on a discrete k-point grid and not necessarily exact.
  | For converged numbers, create a DOS and/or band structure plot on a denser k-grid.

  Highest occupied state (VBM) at     -4.86066535 eV (relative to internal zero)
  | Occupation number:      1.32427694
  | K-point:     136 at    0.375000    0.500000    0.142857 (in units of recip. lattice)

  Lowest unoccupied state (CBM) at    -4.83493769 eV (relative to internal zero)
  | Occupation number:      0.75703141
  | K-point:      40 at    0.125000    0.250000    0.000000 (in units of recip. lattice)

  ESTIMATED overall HOMO-LUMO gap:      0.02572765 eV between HOMO at k-point 136 and LUMO at k-point 40
  | This appears to be an indirect band gap.
  | Smallest direct gap :      0.26654907 eV for k_point 140 at    0.125000    0.250000    0.000000 (in units of recip. lattice)
  However, this system has fractional occupation numbers. Since we use a finite k-point grid,
  this material is metallic within the approximate finite broadening function (occupation_type)
  applied to determine the occupation numbers.

  Total energy components:
  | Sum of eigenvalues            :      -23864.33682532 Ha     -649381.64519143 eV
  | XC energy correction          :       -1284.32657060 Ha      -34948.30413605 eV
  | XC potential correction       :        1672.90092053 Ha       45521.95017892 eV
  | Free-atom electrostatic energy:      -16511.28713558 Ha     -449294.98283605 eV
  | Hartree energy correction     :           7.14465756 Ha         194.41602409 eV
  | vdW energy correction         :           0.00000000 Ha           0.00000000 eV
  | Entropy correction            :          -0.00003538 Ha          -0.00096282 eV
  | ---------------------------
  | Total energy                  :      -39979.90495340 Ha    -1087908.56596051 eV
  | Total energy, T -> 0          :      -39979.90498879 Ha    -1087908.56692333 eV  <-- do not rely on this value for anything but (periodic) metals
  | Electronic free energy        :      -39979.90502417 Ha    -1087908.56788615 eV

  Derived energy quantities:
  | Kinetic energy                :       41145.64764813 Ha     1119630.03865478 eV
  | Electrostatic energy          :      -79841.22603094 Ha    -2172590.30047924 eV
  | Energy correction for multipole
  | error in Hartree potential    :          -0.00539531 Ha          -0.14681387 eV
  | Sum of eigenvalues per atom                           :      -54115.13709929 eV
  | Total energy (T->0) per atom                          :      -90659.04724361 eV  <-- do not rely on this value for anything but (periodic) metals
  | Electronic free energy per atom                       :      -90659.04732385 eV

  Self-consistency convergence accuracy:
  | Change of charge density      :  0.3109E-03
  | Change of sum of eigenvalues  :  0.5542E-01 eV
  | Change of total energy        :  0.3752E-05 eV

  End self-consistency iteration #    14       :  max(cpu_time)    wall_clock(cpu1)
  | Time for this iteration                    :       12.015 s          12.015 s
  | Charge density update                      :        5.332 s           5.333 s
  | Density mixing & preconditioning           :        0.849 s           0.849 s
  | Hartree multipole update                   :        0.004 s           0.004 s
  | Hartree multipole summation                :        1.753 s           1.753 s
  | Integration                                :        2.657 s           2.657 s
  | Solution of K.-S. eqns.                    :        1.417 s           1.417 s
  | Total energy evaluation                    :        0.002 s           0.002 s

  Partial memory accounting:
  | Current value for overall tracked memory usage:
  |   Minimum:       40.180 MB (on task  0)
  |   Maximum:       42.279 MB (on task  1)
  |   Average:       41.055 MB
  | Peak value for overall tracked memory usage:
  |   Minimum:       53.643 MB (on task 21 after allocating wave)
  |   Maximum:       56.193 MB (on task  4 after allocating wave)
  |   Average:       54.787 MB
  | Largest tracked array allocation so far:
  |   Minimum:       18.895 MB (KS_eigenvector_complex on task  0)
  |   Maximum:       20.995 MB (KS_eigenvector_complex on task  1)
  |   Average:       19.770 MB
  Note:  These values currently only include a subset of arrays which are explicitly tracked.
  The "true" memory usage will be greater.
------------------------------------------------------------

------------------------------------------------------------
          Begin self-consistency iteration #   15

  Date     :  20200420, Time     :  113751.566
------------------------------------------------------------
  Evaluating new KS density using the density matrix
  Evaluating density matrix
  Time summed over all CPUs for getting density from density matrix: real work      119.975 s, elapsed      121.834 s
  Integration grid: deviation in total charge (<rho> - N_e) =   2.085017E-10
  Pulay mixing of updated and previous charge densities.
  Renormalizing the density to the exact electron count on the 3D integration grid.
  | Formal number of electrons (from input files) :     456.0000000000
  | Integrated number of electrons on 3D grid     :     455.9999998172
  | Charge integration error                      :      -0.0000001828
  | Normalization factor for density and gradient :       1.0000000004

  Evaluating partitioned Hartree potential by multipole expansion.
  | Original multipole sum: apparent total charge =  -0.474318E-12
  | Sum of charges compensated after spline to logarithmic grids =   0.882983E-07
  | Analytical far-field extrapolation by fixed multipoles:
  | Hartree multipole sum: apparent total charge =  -0.474235E-12
  Summing up the Hartree potential.
  Time summed over all CPUs for potential: real work       40.020 s, elapsed       41.593 s
  | RMS charge density error from multipole expansion :   0.760841E-02
  | Average real-space part of the electrostatic potential :     -0.00850695 eV

  Integrating Hamiltonian matrix: batch-based integration.
  Time summed over all CPUs for integration: real work       62.316 s, elapsed       63.149 s

  Updating Kohn-Sham eigenvalues and eigenvectors using ELSI and the (modified) LAPACK eigensolver.
  Starting LAPACK eigensolver
  Finished Cholesky decomposition
  | Time :     0.011 s
  Finished transformation to standard eigenproblem
  | Time :     0.021 s
  Finished solving standard eigenproblem
  | Time :     0.069 s
  Finished back-transformation of eigenvectors
  | Time :     0.010 s

  Obtaining occupation numbers and chemical potential using ELSI.
  | Chemical potential (Fermi level):    -4.84587641 eV
  What follows are estimated values for band gap, HOMO, LUMO, etc.
  | They are estimated on a discrete k-point grid and not necessarily exact.
  | For converged numbers, create a DOS and/or band structure plot on a denser k-grid.

  Highest occupied state (VBM) at     -4.86066928 eV (relative to internal zero)
  | Occupation number:      1.32434930
  | K-point:     136 at    0.375000    0.500000    0.142857 (in units of recip. lattice)

  Lowest unoccupied state (CBM) at    -4.83493715 eV (relative to internal zero)
  | Occupation number:      0.75701046
  | K-point:      40 at    0.125000    0.250000    0.000000 (in units of recip. lattice)

  ESTIMATED overall HOMO-LUMO gap:      0.02573213 eV between HOMO at k-point 136 and LUMO at k-point 40
  | This appears to be an indirect band gap.
  | Smallest direct gap :      0.26655562 eV for k_point 140 at    0.125000    0.250000    0.000000 (in units of recip. lattice)
  However, this system has fractional occupation numbers. Since we use a finite k-point grid,
  this material is metallic within the approximate finite broadening function (occupation_type)
  applied to determine the occupation numbers.

  Total energy components:
  | Sum of eigenvalues            :      -23864.33678433 Ha     -649381.64407599 eV
  | XC energy correction          :       -1284.32657232 Ha      -34948.30418293 eV
  | XC potential correction       :        1672.90092249 Ha       45521.95023216 eV
  | Free-atom electrostatic energy:      -16511.28713558 Ha     -449294.98283605 eV
  | Hartree energy correction     :           7.14461634 Ha         194.41490235 eV
  | vdW energy correction         :           0.00000000 Ha           0.00000000 eV
  | Entropy correction            :          -0.00003538 Ha          -0.00096280 eV
  | ---------------------------
  | Total energy                  :      -39979.90495340 Ha    -1087908.56596046 eV
  | Total energy, T -> 0          :      -39979.90498878 Ha    -1087908.56692326 eV  <-- do not rely on this value for anything but (periodic) metals
  | Electronic free energy        :      -39979.90502417 Ha    -1087908.56788606 eV

  Derived energy quantities:
  | Kinetic energy                :       41145.64770126 Ha     1119630.04010040 eV
  | Electrostatic energy          :      -79841.22608234 Ha    -2172590.30187793 eV
  | Energy correction for multipole
  | error in Hartree potential    :          -0.00539528 Ha          -0.14681316 eV
  | Sum of eigenvalues per atom                           :      -54115.13700633 eV
  | Total energy (T->0) per atom                          :      -90659.04724361 eV  <-- do not rely on this value for anything but (periodic) metals
  | Electronic free energy per atom                       :      -90659.04732384 eV

  Self-consistency convergence accuracy:
  | Change of charge density      :  0.7825E-04
  | Change of sum of eigenvalues  :  0.1115E-02 eV
  | Change of total energy        :  0.4910E-07 eV

  End self-consistency iteration #    15       :  max(cpu_time)    wall_clock(cpu1)
  | Time for this iteration                    :       12.058 s          12.058 s
  | Charge density update                      :        5.318 s           5.318 s
  | Density mixing & preconditioning           :        0.849 s           0.849 s
  | Hartree multipole update                   :        0.004 s           0.004 s
  | Hartree multipole summation                :        1.753 s           1.752 s
  | Integration                                :        2.659 s           2.659 s
  | Solution of K.-S. eqns.                    :        1.472 s           1.472 s
  | Total energy evaluation                    :        0.002 s           0.002 s

  Partial memory accounting:
  | Current value for overall tracked memory usage:
  |   Minimum:       40.180 MB (on task  0)
  |   Maximum:       42.279 MB (on task  1)
  |   Average:       41.055 MB
  | Peak value for overall tracked memory usage:
  |   Minimum:       53.643 MB (on task 21 after allocating wave)
  |   Maximum:       56.193 MB (on task  4 after allocating wave)
  |   Average:       54.787 MB
  | Largest tracked array allocation so far:
  |   Minimum:       18.895 MB (KS_eigenvector_complex on task  0)
  |   Maximum:       20.995 MB (KS_eigenvector_complex on task  1)
  |   Average:       19.770 MB
  Note:  These values currently only include a subset of arrays which are explicitly tracked.
  The "true" memory usage will be greater.
------------------------------------------------------------

------------------------------------------------------------
          Begin self-consistency iteration #   16

  Date     :  20200420, Time     :  113803.626
------------------------------------------------------------
  Evaluating new KS density using the density matrix
  Evaluating density matrix
  Time summed over all CPUs for getting density from density matrix: real work      119.893 s, elapsed      120.973 s
  Integration grid: deviation in total charge (<rho> - N_e) =   2.083880E-10
  Pulay mixing of updated and previous charge densities.
  Renormalizing the density to the exact electron count on the 3D integration grid.
  | Formal number of electrons (from input files) :     456.0000000000
  | Integrated number of electrons on 3D grid     :     456.0000044010
  | Charge integration error                      :       0.0000044010
  | Normalization factor for density and gradient :       0.9999999903

  Evaluating partitioned Hartree potential by multipole expansion.
  | Original multipole sum: apparent total charge =   0.169608E-12
  | Sum of charges compensated after spline to logarithmic grids =   0.893691E-07
  | Analytical far-field extrapolation by fixed multipoles:
  | Hartree multipole sum: apparent total charge =   0.169073E-12
  Summing up the Hartree potential.
  Time summed over all CPUs for potential: real work       40.029 s, elapsed       41.595 s
  | RMS charge density error from multipole expansion :   0.760856E-02
  | Average real-space part of the electrostatic potential :     -0.00848543 eV

  Integrating Hamiltonian matrix: batch-based integration.
