------------------------------------------------------------
          Invoking FHI-aims ...

          When using FHI-aims, please cite the following reference:

          Volker Blum, Ralf Gehrke, Felix Hanke, Paula Havu,
          Ville Havu, Xinguo Ren, Karsten Reuter, and Matthias Scheffler,
          'Ab Initio Molecular Simulations with Numeric Atom-Centered Orbitals',
          Computer Physics Communications 180, 2175-2196 (2009)

          For any questions about FHI-aims, please visit the aimsclub website
          with its forums and wiki. Contributions to both the forums and the
          wiki are warmly encouraged - they are for you, and everyone is welcome there.

------------------------------------------------------------



  Date     :  20200420, Time     :  204038.787
  Time zero on CPU 1             :   0.117629000000000E+00  s.
  Internal wall clock time zero  :           356647238.787  s.

  FHI-aims created a unique identifier for this run for later identification
  aims_uuid : F7C73689-1D2F-4CD6-AF88-3B385819DCCC

  Build configuration of the current instance of FHI-aims
  -------------------------------------------------------
  FHI-aims version      : 200112
  Commit number         : 23daeca3f
  CMake host system     : Linux-3.10.0-693.21.1.el7.x86_64
  CMake version         : 3.13.3
  Fortran compiler      : /sw/installed/impi/2018.4.274-iccifort-2019.1.144-GCC-8.2.0-2.31.1/bin64/mpiifort (Intel) version 19.0.0.20181018
  Fortran compiler flags: -O3 -ip -fp-model precise
  C compiler            : /sw/installed/impi/2018.4.274-iccifort-2019.1.144-GCC-8.2.0-2.31.1/bin64/mpiicc (Intel) version 19.0.0.20181018
  C compiler flags      : -O3 -ip -fp-model precise
  Architecture          :
  Using MPI
  Using Scalapack
  Using C files
  Using LibXC
  Using SPGlib
  Using i-PI
  Using RLSY
  Linking against: /sw/installed/imkl/2019.1.144-iimpi-2019a/mkl/lib/intel64/libmkl_intel_lp64.so
                   /sw/installed/imkl/2019.1.144-iimpi-2019a/mkl/lib/intel64/libmkl_sequential.so
                   /sw/installed/imkl/2019.1.144-iimpi-2019a/mkl/lib/intel64/libmkl_core.so
                   /sw/installed/imkl/2019.1.144-iimpi-2019a/mkl/lib/intel64/libmkl_blacs_intelmpi_lp64.so
                   /sw/installed/imkl/2019.1.144-iimpi-2019a/mkl/lib/intel64/libmkl_scalapack_lp64.so

  Using       24 parallel tasks.
  Task        0 on host taurusi6591.taurus.hrsk.tu-dresden.de reporting.
  Task        1 on host taurusi6591.taurus.hrsk.tu-dresden.de reporting.
  Task        2 on host taurusi6591.taurus.hrsk.tu-dresden.de reporting.
  Task        3 on host taurusi6591.taurus.hrsk.tu-dresden.de reporting.
  Task        4 on host taurusi6591.taurus.hrsk.tu-dresden.de reporting.
  Task        5 on host taurusi6591.taurus.hrsk.tu-dresden.de reporting.
  Task        6 on host taurusi6591.taurus.hrsk.tu-dresden.de reporting.
  Task        7 on host taurusi6591.taurus.hrsk.tu-dresden.de reporting.
  Task        8 on host taurusi6591.taurus.hrsk.tu-dresden.de reporting.
  Task        9 on host taurusi6591.taurus.hrsk.tu-dresden.de reporting.
  Task       10 on host taurusi6591.taurus.hrsk.tu-dresden.de reporting.
  Task       11 on host taurusi6591.taurus.hrsk.tu-dresden.de reporting.
  Task       12 on host taurusi6591.taurus.hrsk.tu-dresden.de reporting.
  Task       13 on host taurusi6591.taurus.hrsk.tu-dresden.de reporting.
  Task       14 on host taurusi6591.taurus.hrsk.tu-dresden.de reporting.
  Task       15 on host taurusi6591.taurus.hrsk.tu-dresden.de reporting.
  Task       16 on host taurusi6591.taurus.hrsk.tu-dresden.de reporting.
  Task       17 on host taurusi6591.taurus.hrsk.tu-dresden.de reporting.
  Task       18 on host taurusi6591.taurus.hrsk.tu-dresden.de reporting.
  Task       19 on host taurusi6591.taurus.hrsk.tu-dresden.de reporting.
  Task       20 on host taurusi6591.taurus.hrsk.tu-dresden.de reporting.
  Task       21 on host taurusi6591.taurus.hrsk.tu-dresden.de reporting.
  Task       22 on host taurusi6591.taurus.hrsk.tu-dresden.de reporting.
  Task       23 on host taurusi6591.taurus.hrsk.tu-dresden.de reporting.

  Performing system and environment tests:
  | Environment variable OMP_NUM_THREADS correctly set to 1.
  | Maximum stacksize for task 0: unlimited
  | Maximum stacksize for task 1: unlimited
  | Maximum stacksize for task 2: unlimited
  | Maximum stacksize for task 3: unlimited
  | Maximum stacksize for task 4: unlimited
  | Maximum stacksize for task 5: unlimited
  | Maximum stacksize for task 6: unlimited
  | Maximum stacksize for task 7: unlimited
  | Maximum stacksize for task 8: unlimited
  | Maximum stacksize for task 9: unlimited
  | Maximum stacksize for task 10: unlimited
  | Maximum stacksize for task 11: unlimited
  | Maximum stacksize for task 12: unlimited
  | Maximum stacksize for task 13: unlimited
  | Maximum stacksize for task 14: unlimited
  | Maximum stacksize for task 15: unlimited
  | Maximum stacksize for task 16: unlimited
  | Maximum stacksize for task 17: unlimited
  | Maximum stacksize for task 18: unlimited
  | Maximum stacksize for task 19: unlimited
  | Maximum stacksize for task 20: unlimited
  | Maximum stacksize for task 21: unlimited
  | Maximum stacksize for task 22: unlimited
  | Maximum stacksize for task 23: unlimited
  | Current stacksize for task 0: unlimited
  | Current stacksize for task 1: unlimited
  | Current stacksize for task 2: unlimited
  | Current stacksize for task 3: unlimited
  | Current stacksize for task 4: unlimited
  | Current stacksize for task 5: unlimited
  | Current stacksize for task 6: unlimited
  | Current stacksize for task 7: unlimited
  | Current stacksize for task 8: unlimited
  | Current stacksize for task 9: unlimited
  | Current stacksize for task 10: unlimited
  | Current stacksize for task 11: unlimited
  | Current stacksize for task 12: unlimited
  | Current stacksize for task 13: unlimited
  | Current stacksize for task 14: unlimited
  | Current stacksize for task 15: unlimited
  | Current stacksize for task 16: unlimited
  | Current stacksize for task 17: unlimited
  | Current stacksize for task 18: unlimited
  | Current stacksize for task 19: unlimited
  | Current stacksize for task 20: unlimited
  | Current stacksize for task 21: unlimited
  | Current stacksize for task 22: unlimited
  | Current stacksize for task 23: unlimited
  | Checking for scalapack...
  | Testing pdtran()...
  | All pdtran() tests passed.

  Obtaining array dimensions for all initial allocations:
  
  -----------------------------------------------------------------------
  Parsing control.in (first pass over file, find array dimensions only).
  The contents of control.in will be repeated verbatim below
  unless switched off by setting 'verbatim_writeout .false.' .
  in the first line of control.in .
  -----------------------------------------------------------------------
  
  #===============================================================================
  # FHI-aims file: ./control.in
  # Created using the Atomic Simulation Environment (ASE)
  # Thu Apr  2 11:27:09 2020
  #===============================================================================
  xc                                 pbe
  # include_spin_orbit
  # vdw_correction_hirshfeld
  many_body_dispersion
  spin                               none
  k_grid 	 	 8 8 7
  relativistic                       atomic_zora scalar
  energy_tolerance 1e-2
  harmonic_length_scale  0.015
  ### SCF settings
  adjust_scf 	 always 	 3
  # frozen_core_scf 	 .true.
  # charge_mix_param  0.05
  # occupation_type 	 gaussian 	 0.01
  # sc_accuracy_eev   1E-3 	 	 # sum of eigenvalues convergence
  # sc_accuracy_etot  1E-6 	 	 # total energy convergence
  # sc_accuracy_rho   1E-3 	 	 # electron density convergence
  # elsi_restart 	 read_and_write 	 1000
  ### geometry optimisation section
  relax_geometry 	 bfgs 	 1E-2
  relax_unit_cell 	 full
  #===============================================================================
  
  ################################################################################
  #
  #  FHI-aims code project
  # Volker Blum, Fritz Haber Institute Berlin, 2009
  #
  #  Suggested "tight" defaults for Pd atom (to be pasted into control.in file)
  #
  ################################################################################
    species        Pd
  #     global species definitions
      nucleus             46
      mass                106.42
  #
      l_hartree           6
  #
      cut_pot             4.0  2.0  1.0
      basis_dep_cutoff    1e-4
  #
      radial_base         62 7.0
      radial_multiplier   2
      angular_grids specified
        division   0.3627   50
        division   0.7349  110
        division   1.0624  194
        division   1.2496  302
        division   1.6740  434
  #      division   2.0126  590
  #      division   2.0830  770
  #      division   2.7936 1202
  #       outer_grid  974
        outer_grid  434
  ################################################################################
  #
  #  Definition of "minimal" basis
  #
  ################################################################################
  #     valence basis states
      valence      5  s   1.
      valence      4  p   6.
      valence      4  d   9.
  #     ion occupancy
      ion_occ     5  s   0.
      ion_occ     4  p   6.
      ion_occ     4  d   8.
  ################################################################################
  #
  #  Suggested additional basis functions. For production calculations,
  #  uncomment them one after another (the most important basis functions are
  #  listed first).
  #
  #  Constructed for dimers: 2.0 A, 2.275 A, 2.75 A, 3.75 A
  #
  ################################################################################
  #  "First tier" - max. impr. -120.76  meV, min. impr. -5.71 meV
       ionic 5 p auto
       hydro 4 f 8
       hydro 5 g 10
       hydro 3 s 2.6
       hydro 3 d 2.5
  #  "Second tier" - max. impr. -5.00  meV, min. impr. -0.62 meV
  #     hydro 5 f 17.2
  #     hydro 6 h 14
  #     hydro 4 d 4
  #     hydro 5 f 7.6
  #     hydro 3 p 3.3
  #     hydro 4 s 9.4
  #  "Third tier" - max. impr. -0.54  meV, min. impr. -0.14 meV
  #     hydro 4 f 20
  #     hydro 5 g 12.8
  #     hydro 5 d 9.8
  #     hydro 6 h 15.2
  #     hydro 5 s 10
  #     hydro 6 p 9.8
  #  "Fourth tier" - max. impr. -0.15  meV, min. impr. -0.05 meV
  #     hydro 5 f 9.2
  #     hydro 2 s 5.6
  #     hydro 5 f 43.2
  #     hydro 5 d 13.2
  #     hydro 5 g 14
  #     hydro 4 p 4.7
  ################################################################################
  #
  #  FHI-aims code project
  # Volker Blum, Fritz Haber Institute Berlin, 2009
  #
  #  Suggested "tight" defaults for Se atom (to be pasted into control.in file)
  #
  ################################################################################
    species        Se
  #     global species definitions
      nucleus             34
      mass                78.96
  #
      l_hartree           6
  #
      cut_pot             4.0          2.0  1.0
      basis_dep_cutoff    1e-4
  #
      radial_base         55 7.0
      radial_multiplier   2
      angular_grids       specified
        division   0.0830  110
        division   0.1357  194
        division   0.7377  302
        division   0.8610  434
  #      division   0.9640  590
  #      division   1.0773  770
  #      division   2.5539  974
  #      outer_grid  974
        outer_grid  434
  ################################################################################
  #
  #  Definition of "minimal" basis
  #
  ################################################################################
  #     valence basis states
      valence      4  s   2.
      valence      4  p   4.
      valence      3  d  10.
  #     ion occupancy
      ion_occ      4  s   1.
      ion_occ      4  p   3.
      ion_occ      3  d  10.
  ################################################################################
  #
  #  Suggested additional basis functions. For production calculations,
  #  uncomment them one after another (the most important basis functions are
  #  listed first).
  #
  #  Constructed for dimers: 1.85 A, 2.15 A, 2.50 A, 3.00 A, 4.00 A
  #
  ################################################################################
  #  "First tier" - improvements: -336.21 meV to -36.85 meV
       hydro 3 d 4.3
       hydro 2 p 1.6
       hydro 4 f 7.2
       ionic 4 s auto
  #  "Second tier" - improvements: -14.39 meV to -1.49 meV
  #     hydro 5 g 10.4
  #     hydro 4 p 4.5
  #     hydro 4 d 6.2
  #     hydro 4 f 11.2
  #     hydro 1 s 0.65
  #     hydro 6 h 15.2
  #  "Third tier" - improvements: -0.46 meV and below
  #     hydro 5 g 14.4
  #     ionic 4 d auto
  #     hydro 4 f 22.4
  #     hydro 5 f 7.4
  #     hydro 5 p 8
  #     hydro 5 s 9.4
  #  "Fourth tier" - improvements: -0.12 meV and below
  #     hydro 5 d 11.6
  #     hydro 6 h 18
  #     hydro 4 p 4
  #     hydro 5 f 16
  #     hydro 4 s 3.9
  #
  #
  
  -----------------------------------------------------------------------
  Completed first pass over input file control.in .
  -----------------------------------------------------------------------
  
  
  -----------------------------------------------------------------------
  Parsing geometry.in (first pass over file, find array dimensions only).
  The contents of geometry.in will be repeated verbatim below
  unless switched off by setting 'verbatim_writeout .false.' .
  in the first line of geometry.in .
  -----------------------------------------------------------------------
  
  #
  # This is the geometry file that corresponds to the current relaxation step.
  # If you do not want this file to be written, set the "write_restart_geometry" flag to .false.
  #  aims_uuid : A120F76A-9424-4572-A308-5DF37ABDDB9F
  #
  lattice_vector      5.85253725      0.00000000      0.00000000
  lattice_vector      0.00000000      5.95734977      0.00000000
  lattice_vector      0.00000000      0.00000000      7.43931601
  atom_frac       0.50169582      0.00172023      0.00176406 Pd
  atom_frac       0.00172673      0.00173754      0.50162924 Pd
  atom_frac       0.00170112      0.50163745      0.00172663 Pd
  atom_frac       0.50166249      0.50166594      0.50166741 Pd
  atom_frac       0.61341359      0.11959972      0.40357113 Se
  atom_frac       0.88988725      0.88374734      0.90356074 Se
  atom_frac       0.11347437      0.38380461      0.59974651 Se
  atom_frac       0.38997431      0.61952760      0.09981909 Se
  atom_frac       0.38992678      0.88371434      0.59974387 Se
  atom_frac       0.11345143      0.11956896      0.09980336 Se
  atom_frac       0.88987036      0.61956784      0.40358006 Se
  atom_frac       0.61336078      0.38385348      0.90353295 Se
  #
  # What follows is the current estimated Hessian matrix constructed by the BFGS algorithm.
  # This is NOT the true Hessian matrix of the system.
  # If you do not want this information here, switch it off using the "hessian_to_restart_geometry" keyword.
  #
  trust_radius             0.0244220716
  hessian_block                1       1           5.945638           0.054392          -2.266737           0.054392           6.29878
  hessian_block                1       2           0.009581           0.460061           0.140361           0.445357           0.35571
  hessian_block                1       3           0.062534           0.566451           0.144217          -0.105356          -0.24688
  hessian_block                1       4           0.529311           0.304485          -0.068724           0.191813          -0.36333
  hessian_block                1       5          -0.114290          -0.608746          -0.362956          -0.407898          -0.07904
  hessian_block                1       6          -1.769065           0.232065           0.726456           0.260436          -0.19128
  hessian_block                1       7          -0.400127           0.167961           0.327518           0.141609           0.45951
  hessian_block                1       8          -0.249931          -0.602782           0.332737          -0.456570          -1.97586
  hessian_block                1       9          -0.125790           0.063067           0.246347          -0.378854          -0.17553
  hessian_block                1      10          -2.253423           0.637425           0.968885           0.332928          -0.54884
  hessian_block                1      11           0.105195          -0.390073          -0.289572           0.011424          -0.19589
  hessian_block                1      12          -0.173723          -0.884302           0.101470          -0.089281          -1.69031
  hessian_block                2       2           6.105551           0.249036           2.168482           0.249036           6.48177
  hessian_block                2       3           0.893147           0.512707           0.145180          -0.501955          -0.23135
  hessian_block                2       4           0.328499           0.559316           0.154662          -0.646100           0.03058
  hessian_block                2       5          -2.282785           0.127072          -0.795993           0.188172          -0.54937
  hessian_block                2       6          -0.494180          -0.294304          -0.110043           0.132749          -0.47166
  hessian_block                2       7          -0.140312          -0.632331          -0.435585          -0.233993          -1.60921
  hessian_block                2       8          -0.252728          -0.293900          -0.159638           0.173599          -0.09631
  hessian_block                2       9          -2.006122           0.375579          -1.009413           0.895874          -0.52325
  hessian_block                2      10           0.439260          -0.123909           0.067739          -0.281683           0.02180
  hessian_block                2      11          -0.445047          -0.673150          -0.084020          -0.451400          -2.18800
  hessian_block                2      12          -0.588952          -0.251473          -0.063183           0.015639           0.42632
  hessian_block                3       3           6.464853          -0.503379           2.392256          -0.503379           6.25336
  hessian_block                3       4           0.434869          -0.293346           0.005413          -0.598941           0.42856
  hessian_block                3       5          -0.681078           0.188631          -0.413735          -0.408282           0.37649
  hessian_block                3       6          -0.832935           0.724746          -0.453814           0.422013          -2.01291
  hessian_block                3       7          -0.055190           0.084975           0.196970           0.305147          -0.07832
  hessian_block                3       8          -2.087850          -0.295579          -0.823861          -0.521251          -0.49777
  hessian_block                3       9          -0.300747           0.364547           0.154329           0.297450          -0.26885
  hessian_block                3      10           0.427019           0.377140           0.087260           0.441071          -1.69509
  hessian_block                3      11          -0.296004           0.162800          -0.162693          -0.110600          -0.22543
  hessian_block                3      12          -2.462707          -0.203224          -1.053353          -0.402386          -0.15475
  hessian_block                4       4           5.962379          -0.006210          -2.015457          -0.006210           6.61144
  hessian_block                4       5          -0.543543           0.922567           0.359805           0.170941          -1.83311
  hessian_block                4       6          -0.215812           0.238023           0.027325          -0.236137          -0.52124
  hessian_block                4       7          -1.966270          -0.733337           0.677953          -0.206607          -0.45044
  hessian_block                4       8          -0.257765           0.020534          -0.050944           0.087951          -0.30460
  hessian_block                4       9          -0.303658           0.619688           0.130286           0.147646          -2.27719
  hessian_block                4      10          -0.293748          -0.319046          -0.140624          -0.230828           0.58988
  hessian_block                4      11          -1.911029          -0.145340           0.936587          -0.660986          -0.43961
  hessian_block                4      12          -0.197320           0.456349           0.058408           0.363775           0.17609
  hessian_block                5       5           5.548094          -0.337094          -1.572613          -0.337094           5.83348
  hessian_block                5       6           0.501706           0.280616          -0.446349          -0.067925           0.05005
  hessian_block                5       7          -0.296780           1.016680          -0.054158          -1.002063           0.38519
  hessian_block                5       8          -0.054068          -0.088932           0.445514           0.478519          -0.00717
  hessian_block                5       9          -1.389299          -0.368968           1.787347          -0.481281          -1.60023
  hessian_block                5      10          -0.187571           0.114379           0.510652           0.531626           0.12443
  hessian_block                5      11           0.536174          -0.673490           0.047247           0.756237          -0.58418
  hessian_block                5      12           0.529351           0.513874          -0.757570          -0.507543          -0.46949
  hessian_block                6       6           4.964381           0.071665           1.245223           0.071665           5.68335
  hessian_block                6       7           0.247900           0.071932           0.346742          -0.073191           0.16455
  hessian_block                6       8           0.099455           0.318456           0.094721           0.234294           0.20246
  hessian_block                6       9           0.063735           0.148327           0.055534          -0.268910           0.45400
  hessian_block                6      10          -1.437564          -0.963209          -2.239939          -1.070237          -1.84617
  hessian_block                6      11          -0.105536          -0.061191          -0.684239           0.118724           0.33860
  hessian_block                6      12           0.543826          -0.097116           0.038980          -0.193492          -0.20273
  hessian_block                7       7           5.537881           0.678276           1.081444           0.678276           5.90320
  hessian_block                7       8          -0.212935           0.020685          -0.219515           0.145619          -0.29698
  hessian_block                7       9           0.350467           0.581106          -0.260687          -0.680491          -0.68811
  hessian_block                7      10           0.045347          -0.257958          -0.459322          -0.006154          -0.63957
  hessian_block                7      11          -1.926944           0.176572          -1.617319           0.352880          -1.87524
  hessian_block                7      12           0.382876          -0.129583           0.719791          -0.466010           0.37247
  hessian_block                8       8           4.813644          -0.168188          -0.983974          -0.168188           5.67582
  hessian_block                8       9           0.365791          -0.541723          -0.192786           0.243001           0.03924
  hessian_block                8      10          -0.074946          -0.194447          -0.050668          -0.401306          -0.16223
  hessian_block                8      11           0.413675          -0.352087          -0.188356           0.104939           0.66330
  hessian_block                8      12          -0.936431           1.114282           1.932620           1.143073          -1.59286
  hessian_block                9       9           5.084836          -0.566962          -0.837271          -0.566962           6.05013
  hessian_block                9      10          -0.072539           0.613121          -0.431369          -0.299483           0.13572
  hessian_block                9      11          -0.169024           0.681436          -0.010710          -0.627489           0.68291
  hessian_block                9      12           0.068263          -0.502032           0.963697           0.252310          -0.18180
  hessian_block               10      10           5.380281           0.443632           1.359287           0.443632           6.25043
  hessian_block               10      11           0.066674           0.297006           0.793205          -0.035376          -0.25457
  hessian_block               10      12          -0.472877           0.243428          -0.048711          -0.291750          -0.32877
  hessian_block               11      11           5.492591           0.628021           0.857004           0.628021           6.04449
  hessian_block               11      12          -0.194813          -0.086371          -0.760151           0.349497          -0.31934
  hessian_block               12      12           5.068420          -0.173829          -1.131997          -0.173829           5.61223
  hessian_block_lv             1       1          26.460990          -1.298904           5.348177          -1.298904          25.53890
  hessian_block_lv_atom        1       1           0.319330           0.495972           0.083190          -0.966477          -0.72099
  hessian_block_lv_atom        1       2          -1.372834          -1.368478          -0.400510          -0.401139          -0.37204
  hessian_block_lv_atom        1       3          -1.528365          -1.548089          -0.451409           0.766247           0.87720
  hessian_block_lv_atom        1       4          -0.228003          -0.264335          -0.106543           1.293433           1.17854
  hessian_block_lv_atom        1       5           1.111298           0.947483           0.607711          -0.137331          -0.41260
  hessian_block_lv_atom        1       6           0.824822           0.294105          -0.045187          -0.464262          -0.56856
  hessian_block_lv_atom        1       7          -1.064155          -1.533587           0.031605          -1.253477          -1.29063
  hessian_block_lv_atom        1       8           0.259083           1.023569          -0.139942           0.047817          -0.38977
  hessian_block_lv_atom        1       9           0.123997           0.402822          -0.215005          -0.252560          -0.29951
  hessian_block_lv_atom        1      10          -0.817873          -0.585929           0.087710           0.618617           0.17723
  hessian_block_lv_atom        1      11           1.446529           1.841601           0.089622           0.731876           1.18019
  hessian_block_lv_atom        1      12           0.926169           0.294865           0.458759           0.017255           0.64096
  symmetry_n_params 39 3 36
  symmetry_params a1 b2 c3 x0 x1 x2 x3 x4 x5 x6 x7 x8 x9 x10 x11 x12 x13 x14 x15 x16 x17 x18 x19 x20 x21 x22 x23 x24 x25 x26 x27 x28 x
  symmetry_lv a1 , 0 , 0
  symmetry_lv 0 , b2 , 0
  symmetry_lv 0 , 0 , c3
  symmetry_frac x0 , x1 , x2
  symmetry_frac x3 , x4 , x5
  symmetry_frac x6 , x7 , x8
  symmetry_frac x9 , x10 , x11
  symmetry_frac x12 , x13 , x14
  symmetry_frac x15 , x16 , x17
  symmetry_frac x18 , x19 , x20
  symmetry_frac x21 , x22 , x23
  symmetry_frac x24 , x25 , x26
  symmetry_frac x27 , x28 , x29
  symmetry_frac x30 , x31 , x32
  symmetry_frac x33 , x34 , x35
  
  -----------------------------------------------------------------------
  Completed first pass over input file geometry.in .
  -----------------------------------------------------------------------
  

  Basic array size parameters:
  | Number of species                 :        2
  | Number of atoms                   :       12
  | Number of lattice vectors         :        3
  | Max. basis fn. angular momentum   :        4
  | Max. atomic/ionic basis occupied n:        5
  | Max. number of basis fn. types    :        3
  | Max. radial fns per species/type  :       10
  | Max. logarithmic grid size        :     1444
  | Max. radial integration grid size :      125
  | Max. angular integration grid size:      434
  | Max. angular grid division number :        8
  | Radial grid for Hartree potential :     1444
  | Number of spin channels           :        1

------------------------------------------------------------
          Reading file control.in.
------------------------------------------------------------
  XC: Using PBE gradient-corrected functionals.
  Using libMBD for calculating MBD and TS energies
  Spin treatment: No spin polarisation.
  Found k-point grid:         8         8         7
  Scalar relativistic treatment of kinetic energy: on-site free-atom approximation to ZORA.
  Max energy increase before discarding BFGS move:   0.100000E-01 eV
  Assuming qualitatively harmonic for steps shorter than   0.150000E-01 A.
  S.C.F. convergence parameters will be adjusted in iteration number     3 of each new s.c.f. cycle.
  Geometry relaxation: Modified BFGS - TRM (trust radius method) for lattice optimization.
  Convergence accuracy for geometry relaxation: Maximum force <   0.100000E-01 eV/A.
 
  Reading configuration options for species Pd                  .
  | Found nuclear charge :  46.0000
  | Found atomic mass :    106.420000000000      amu
  | Found l_max for Hartree potential  :   6
  | Found cutoff potl. onset [A], width [A], scale factor :    4.00000    2.00000    1.00000
  | Threshold for basis-dependent cutoff potential is   0.100000E-03
  | Found data for basic radial integration grid :    62 points, outermost radius =    7.000 A
  | Found multiplier for basic radial grid :   2
  | Found angular grid specification: user-specified.
  | Specified grid contains     6 separate shells.
  | Check grid settings after all constraints further below.
  | Found free-atom valence shell :  5 s   1.000
  | Found free-atom valence shell :  4 p   6.000
  | Found free-atom valence shell :  4 d   9.000
  | Found free-ion valence shell :  5 s   0.000
  | Found free-ion valence shell :  4 p   6.000
  | Found free-ion valence shell :  4 d   8.000
  | Found ionic basis function :  5 p , default cutoff radius.
  | Found hydrogenic basis function :  4 f   8.000
  | Found hydrogenic basis function :  5 g  10.000
  | Found hydrogenic basis function :  3 s   2.600
  | Found hydrogenic basis function :  3 d   2.500
  Species Pd                  : Missing cutoff potential type.
  Defaulting to exp(1/x)/(1-x)^2 type cutoff potential.
  Species Pd: No 'logarithmic' tag. Using default grid for free atom:
  | Default logarithmic grid data [bohr] : 0.1000E-03 0.1000E+03 0.1012E+01
  | Will include ionic basis functions of  2.0-fold positive Pd                   ion.
  Species Pd: On-site basis accuracy parameter (for Gram-Schmidt orthonormalisation) not specified.
  Using default value basis_acc =  0.1000000E-03.
  Species Pd                  : Using default innermost maximum threshold i_radial=  2 for radial functions.
  Species Pd                  : Default cutoff onset for free atom density etc. : 0.40000000E+01 AA.
  Species Pd                  : Basic radial grid will be enhanced according to radial_multiplier =   2, to contain   125 grid points.
 
  Reading configuration options for species Se                  .
  | Found nuclear charge :  34.0000
  | Found atomic mass :    78.9600000000000      amu
  | Found l_max for Hartree potential  :   6
  | Found cutoff potl. onset [A], width [A], scale factor :    4.00000    2.00000    1.00000
  | Threshold for basis-dependent cutoff potential is   0.100000E-03
  | Found data for basic radial integration grid :    55 points, outermost radius =    7.000 A
  | Found multiplier for basic radial grid :   2
  | Found angular grid specification: user-specified.
  | Specified grid contains     5 separate shells.
  | Check grid settings after all constraints further below.
  | Found free-atom valence shell :  4 s   2.000
  | Found free-atom valence shell :  4 p   4.000
  | Found free-atom valence shell :  3 d  10.000
  | Found free-ion valence shell :  4 s   1.000
  | Found free-ion valence shell :  4 p   3.000
  | Found free-ion valence shell :  3 d  10.000
  | Found hydrogenic basis function :  3 d   4.300
  | Found hydrogenic basis function :  2 p   1.600
  | Found hydrogenic basis function :  4 f   7.200
  | Found ionic basis function :  4 s , default cutoff radius.
  Species Se                  : Missing cutoff potential type.
  Defaulting to exp(1/x)/(1-x)^2 type cutoff potential.
  Species Se: No 'logarithmic' tag. Using default grid for free atom:
  | Default logarithmic grid data [bohr] : 0.1000E-03 0.1000E+03 0.1012E+01
  | Will include ionic basis functions of  2.0-fold positive Se                   ion.
  Species Se: On-site basis accuracy parameter (for Gram-Schmidt orthonormalisation) not specified.
  Using default value basis_acc =  0.1000000E-03.
  Species Se                  : Using default innermost maximum threshold i_radial=  2 for radial functions.
  Species Se                  : Default cutoff onset for free atom density etc. : 0.40000000E+01 AA.
  Species Se                  : Basic radial grid will be enhanced according to radial_multiplier =   2, to contain   111 grid points.
 
  Finished reading input file 'control.in'. Consistency checks are next.
 
  MPI_IN_PLACE appears to work with this MPI implementation.
  | Keeping use_mpi_in_place .true. (see manual).
  Target number of points in a grid batch is not set. Defaulting to  100
  Method for grid partitioning is not set. Defaulting to parallel hash+maxmin partitioning.
  Batch size limit is not set. Defaulting to    200
  By default, will store active basis functions for each batch.
  If in need of memory, prune_basis_once .false. can be used to disable this option.
  communication_type for Hartree potential was not specified.
  Defaulting to calc_hartree .
  Defaulting to Pulay charge density mixer.
  Pulay mixer: Number of relevant iterations not set.
  Defaulting to    8 iterations.
  Pulay mixer: Number of initial linear mixing iterations not set.
  Defaulting to    0 iterations.
  Work space size for distributed Hartree potential not set.
  Defaulting to   0.200000E+03 MB.
  Mixing parameter for charge density mixing has not been set.
  Using default: charge_mix_param =     0.0500.
  The mixing parameter will be adjusted in iteration number     3 of each s.c.f. cycle (i.e., each geometry step).
  Algorithm-dependent basis array size parameters:
  | n_max_pulay                         :        8
  Maximum number of self-consistency iterations not provided.
  Presetting  1000 iterations.
  Presetting      1001 iterations before the initial mixing cycle
  is restarted anyway using the sc_init_iter criterion / keyword.
  Presetting a factor      1.000 between actual scf density residual
  and density convergence criterion sc_accuracy_rho below which sc_init_iter
  takes no effect.
 * No s.c.f. convergence criteria (sc_accuracy_*) were provided in control.in.
 * The run will proceed with a reasonable default guess, but please check whether.
 * the s.c.f. cycles seem to take too much or too little time.
  No maximum number of relaxation steps, defaulting to     1000
  Using explicit Hessian from geometry.in.
  Maximum energy tolerance by which TRM/BFGS trajectory may increase over multiple steps:   0.300000E-02
  No trust radius initializer. Defaulting to   0.200000E+00 A.
  Unit cell relaxation: Unit cell will be relaxed fully.
  Unit cell relaxation: Analytical stress will be used.
  Analytical stress will be computed.
  Analytical stress calculation: Only the upper triangle is calculated.
                                 Final output is symmetrized.
  Analytical stress calculation: scf convergence accuracy of stress not set.
                                 Analytical stress self-consistency will not be checked explicitly.
                                 Be sure to set other criteria like sc_accuracy_rho tight enough.
 * Notice: The s.c.f. convergence criterion sc_accuracy_rho was not provided.
 * We used to stop in this case, and ask the user to provide reasonable
 * scf convergence criteria. However, this led some users to employ criteria
 * that led to extremely long run times, e.g., for simple relaxation.
 * We now preset a default value for sc_accuracy_rho if it is not set.
 * You may still wish to check if this setting is too tight or too loose for your needs.
 * Based on n_atoms, FHI-aims chose sc_accuracy_rho =  0.141421E-05 .
  Force calculation: scf convergence accuracy of forces not set.
  Defaulting to 'sc_accuracy_forces not_checked'.
  Handling of forces: Unphysical translation and rotation will be removed from forces.
  No accuracy limit for integral partition fn. given. Defaulting to  0.1000E-14.
  No threshold value for u(r) in integrations given. Defaulting to  0.1000E-05.
  No occupation type (smearing scheme) given. Defaulting to Gaussian broadening, width =  0.1000E-01 eV.
  The width will be adjusted in iteration number     3 of each s.c.f. cycle (i.e., each geometry step).
  S.C.F. convergence parameters will be adjusted in iteration number     3 of the first full s.c.f. cycle only.
  No accuracy for occupation numbers given. Defaulting to  0.1000E-12.
  No threshold value for occupation numbers given. Defaulting to  0.0000E+00.
  No accuracy for fermi level given. Defaulting to  0.1000E-19.
  Maximum # of iterations to find E_F not set. Defaulting to  200.
  Preferred method for the eigenvalue solver ('KS_method') not specified in 'control.in'.
  Defaulting to serial version, LAPACK (via ELSI), since more k-points than CPUs available.
  Will not use alltoall communication since running on < 1024 CPUs.
  Threshold for basis singularities not set.
  Default threshold for basis singularities:  0.1000E-04
  partition_type (choice of integration weights) for integrals was not specified.
  | Using a version of the partition function of Stratmann and coworkers ('stratmann_sparse').
  | At each grid point, the set of atoms used to build the partition table is smoothly restricted to
  | only those atoms whose free-atom density would be non-zero at that grid point.
  Partitioning for Hartree potential was not defined. Using partition_type for integrals.
  | Adjusted default value of keyword multip_moments_threshold to:       0.10000000E-11
  | This value may affect high angular momentum components of the Hartree potential in periodic systems.
  Angular momentum expansion for Kerker preconditioner not set explicitly.
  | Using default value of   0
  No explicit requirement for turning off preconditioner.
  | By default, it will be turned off when the charge convergence reaches
  | sc_accuracy_rho  =   0.141421E-05
  No special mixing parameter while Kerker preconditioner is on.
  Using default: charge_mix_param =     0.0500.
  No q(lm)/r^(l+1) cutoff set for long-range Hartree potential.
  | Using default value of  0.100000E-09 .
  | Verify using the multipole_threshold keyword.
  Defaulting to new monopole extrapolation.
  Density update method: automatic selection selected.
  Using density matrix based charge density update.
  Using density matrix based charge density update.
  Using packed matrix style: index .
  Geometry relaxation: A file "geometry.in.next_step" is written out by default after each step.
  | This file contains the geometry of the current relaxation step as well as
  | the current Hessian matrix needed to restart the relaxation algorithm.
  | If you do not want part or all of this information, use the keywords
  | "write_restart_geometry" or "hessian_to_restart_geometry" to switch the output off.
  Defaulting to use time-reversal symmetry for k-point grid.
  Charge integration errors on the 3D integration grid will be compensated
  by explicit normalization and distribution of residual charges.
  Use the "compensate_multipole_errors" flag to change this behaviour.
------------------------------------------------------------


------------------------------------------------------------
          Reading geometry description geometry.in.
------------------------------------------------------------
  Input structure read successfully.
  The structure contains       12 atoms,  and a total of        456.000 electrons.

  Input geometry:
  | Unit cell:
  |        5.85253725        0.00000000        0.00000000
  |        0.00000000        5.95734977        0.00000000
  |        0.00000000        0.00000000        7.43931601
  | Atomic structure:
  |       Atom                x [A]            y [A]            z [A]
  |    1: Species Pd            2.93619347        0.01024801        0.01312340
  |    2: Species Pd            0.01010575        0.01035113        3.73177844
  |    3: Species Pd            0.00995587        2.98842975        0.01284495
  |    4: Species Pd            2.93599841        2.98859947        3.73206239
  |    5: Species Se            3.59002589        0.71249736        3.00229317
  |    6: Species Se            5.20809828        5.26479201        6.72187388
  |    7: Species Se            0.66411298        2.28645831        4.46170381
  |    8: Species Se            2.28233918        3.69074261        0.74258575
  |    9: Species Se            2.28206100        5.26459542        4.46168417
  |   10: Species Se            0.66397872        0.71231412        0.74246873
  |   11: Species Se            5.20799943        3.69098233        3.00235960
  |   12: Species Se            3.58971681        2.28674944        6.72166714

  Lattice parameters for 3D lattice (in Angstroms) :     5.852537    5.957350    7.439316
  Angle(s) between unit vectors (in degrees)       :    90.000000   90.000000   90.000000

  | The smallest distance between any two atoms is         2.41095795 AA.
  | The first atom of this pair is atom number                      8 .
  | The second atom of this pair is atom number                    12 .
  | Wigner-Seitz cell of the first atom image          -1     1     0 .
  | (The Wigner-Seitz cell of the second atom is 0 0 0  by definition.)

  Symmetry information by spglib:
  | Precision set to  0.1E-04
  | Number of Operations  : 1
  | Space group           : 1
  | International         : P1
  | Schoenflies           : C1^1

  Quantities derived from the lattice vectors:
  | Reciprocal lattice vector 1:  1.073583  0.000000  0.000000
  | Reciprocal lattice vector 2:  0.000000  1.054695  0.000000
  | Reciprocal lattice vector 3:  0.000000  0.000000  0.844592
  | Unit cell volume                               :   0.259376E+03  A^3

  Range separation radius for Ewald summation (hartree_convergence_parameter):      3.99933660 bohr.

  Fractional coordinates:
                         L1                L2                L3
       atom_frac         0.50169582        0.00172023        0.00176406  Pd
       atom_frac         0.00172673        0.00173754        0.50162924  Pd
       atom_frac         0.00170112        0.50163745        0.00172663  Pd
       atom_frac         0.50166249        0.50166594        0.50166741  Pd
       atom_frac         0.61341359        0.11959972        0.40357113  Se
       atom_frac         0.88988725        0.88374734        0.90356074  Se
       atom_frac         0.11347437        0.38380461        0.59974651  Se
       atom_frac         0.38997431        0.61952760        0.09981909  Se
       atom_frac         0.38992678        0.88371434        0.59974387  Se
       atom_frac         0.11345143        0.11956896        0.09980336  Se
       atom_frac         0.88987036        0.61956784        0.40358006  Se
       atom_frac         0.61336078        0.38385348        0.90353295  Se

  Number of empty states per atom not set in control.in - providing a guess from actual geometry.
  | Total number of empty states used during s.c.f. cycle:       66
  If you use a very high smearing, use empty_states (per atom!) in control.in to increase this value.

  Structure-dependent array size parameters: 
  | Maximum number of distinct radial functions  :       27
  | Maximum number of basis functions            :      468
  | Number of Kohn-Sham states (occupied + empty):      294
------------------------------------------------------------

------------------------------------------------------------
          Preparing all fixed parts of the calculation.
------------------------------------------------------------
  Determining machine precision:
    2.225073858507201E-308
  Setting up grids for atomic and cluster calculations.

  Creating wave function, potential, and density for free atoms.

  Species: Pd

  List of occupied orbitals and eigenvalues:
    n    l              occ      energy [Ha]    energy [eV]
    1    0           2.0000      -913.269104    -24851.3168
    2    0           2.0000      -130.434372     -3549.2998
    3    0           2.0000       -23.521804      -640.0609
    4    0           2.0000        -3.256918       -88.6253
    5    0           1.0000        -0.157260        -4.2793
    2    1           6.0000      -116.910756     -3181.3035
    3    1           6.0000       -19.103344      -519.8284
    4    1           6.0000        -1.998052       -54.3697
    3    2          10.0000       -12.098182      -329.2083
    4    2           9.0000        -0.243389        -6.6230


  Species: Se

  List of occupied orbitals and eigenvalues:
    n    l              occ      energy [Ha]    energy [eV]
    1    0           2.0000      -466.337810    -12689.6975
    2    0           2.0000       -59.202598     -1610.9847
    3    0           2.0000        -7.847116      -213.5309
    4    0           2.0000        -0.634372       -17.2621
    2    1           6.0000       -52.061107     -1416.6548
    3    1           6.0000        -5.620941      -152.9536
    4    1           4.0000        -0.238469        -6.4891
    3    2          10.0000        -1.951949       -53.1152

  Creating fixed part of basis set: Ionic, confined, hydrogenic.
 
  Pd                   ion:

  List of free ionic orbitals and eigenvalues:
    n    l      energy [Ha]    energy [eV]
    1    0      -914.099884    -24873.9234
    2    0      -131.248265     -3571.4470
    3    0       -24.332473      -662.1203
    4    0        -4.059276      -110.4585
    2    1      -117.724296     -3203.4411
    3    1       -19.913908      -541.8850
    4    1        -2.795328       -76.0648
    3    2       -12.908733      -351.2645
    4    2        -1.004248       -27.3270


  List of ionic basis orbitals and eigenvalues:
    n    l      energy [Ha]    energy [eV]    outer radius [A]
    5    1        -0.516938       -14.0666       5.427025

 
  Pd                   hydrogenic:
 
  List of hydrogenic basis orbitals: 
    n    l      effective z      eigenvalue [eV]  inner max. [A]     outer max. [A]     outer radius [A]   
    4    3         8.000000       -54.4226           1.054686           1.054686           4.629581
    5    4        10.000000       -54.4226           1.330451           1.330451           5.043202
    3    0         2.600000        -9.8948           0.150992           2.606197           5.493778
    3    2         2.500000        -9.3396           1.873517           1.873517           5.493778
 
 
  Se                   ion:

  List of free ionic orbitals and eigenvalues:
    n    l      energy [Ha]    energy [eV]
    1    0      -467.261007    -12714.8189
    2    0       -60.104893     -1635.5374
    3    0        -8.743714      -237.9286
    4    0        -1.414053       -38.4783
    2    1       -52.964156     -1441.2280
    3    1        -6.516916      -177.3343
    4    1        -0.961869       -26.1738
    3    2        -2.844511       -77.4031


  List of ionic basis orbitals and eigenvalues:
    n    l      energy [Ha]    energy [eV]    outer radius [A]
    4    0        -1.414046       -38.4782       4.083166

 
  Se                   hydrogenic:
 
  List of hydrogenic basis orbitals: 
    n    l      effective z      eigenvalue [eV]  inner max. [A]     outer max. [A]     outer radius [A]   
    3    2         4.300000       -27.9518           1.103845           1.103845           5.278265
    2    1         1.600000        -8.6828           1.326010           1.326010           5.475439
    4    3         7.200000       -44.0822           1.173422           1.173422           4.965294
 

  Adding cutoff potential to free-atom effective potential.
  Creating atomic-like basis functions for current effective potential.

  Species Pd                  :

  List of atomic basis orbitals and eigenvalues:
    n    l      energy [Ha]    energy [eV]    outer radius [A]
    1    0      -913.269104    -24851.3168       0.223280
    2    0      -130.434372     -3549.2998       0.615909
    3    0       -23.521804      -640.0609       1.414312
    4    0        -3.256918       -88.6253       3.581357
    5    0        -0.157260        -4.2793       5.427025
    2    1      -116.910756     -3181.3035       0.631154
    3    1       -19.103344      -519.8284       1.540671
    4    1        -1.998052       -54.3697       4.408641
    3    2       -12.098182      -329.2083       1.806051
    4    2        -0.243389        -6.6230       5.361084


  Species Se                  :

  List of atomic basis orbitals and eigenvalues:
    n    l      energy [Ha]    energy [eV]    outer radius [A]
    1    0      -466.337810    -12689.6975       0.309561
    2    0       -59.202598     -1610.9847       0.885812
    3    0        -7.847116      -213.5309       2.355489
    4    0        -0.634372       -17.2621       5.214131
    2    1       -52.061107     -1416.6548       0.907737
    3    1        -5.620941      -152.9536       2.694529
    4    1        -0.238469        -6.4891       5.408909
    3    2        -1.951949       -53.1152       4.083166

  Assembling full basis from fixed parts.
  | Species Pd :   atomic orbital   1 s accepted.
  | Species Pd :   atomic orbital   2 s accepted.
  | Species Pd :   atomic orbital   3 s accepted.
  | Species Pd :   atomic orbital   4 s accepted.
  | Species Pd :   atomic orbital   5 s accepted.
  | Species Pd :    hydro orbital   3 s accepted.
  | Species Pd :   atomic orbital   2 p accepted.
  | Species Pd :   atomic orbital   3 p accepted.
  | Species Pd :   atomic orbital   4 p accepted.
  | Species Pd :    ionic orbital   5 p accepted.
  | Species Pd :   atomic orbital   3 d accepted.
  | Species Pd :   atomic orbital   4 d accepted.
  | Species Pd :    hydro orbital   3 d accepted.
  | Species Pd :    hydro orbital   4 f accepted.
  | Species Pd :    hydro orbital   5 g accepted.
  | Species Se :   atomic orbital   1 s accepted.
  | Species Se :   atomic orbital   2 s accepted.
  | Species Se :   atomic orbital   3 s accepted.
  | Species Se :    ionic orbital   4 s accepted.
  | Species Se :   atomic orbital   4 s accepted.
  | Species Se :   atomic orbital   2 p accepted.
  | Species Se :   atomic orbital   3 p accepted.
  | Species Se :   atomic orbital   4 p accepted.
  | Species Se :    hydro orbital   2 p accepted.
  | Species Se :   atomic orbital   3 d accepted.
  | Species Se :    hydro orbital   3 d accepted.
  | Species Se :    hydro orbital   4 f accepted.
 
  Basis size parameters after reduction:
  | Total number of radial functions:       27
  | Total number of basis functions :      468
 
  Per-task memory consumption for arrays in subroutine allocate_ext:
  |           9.993344MB.
  Testing on-site integration grid accuracy.
  |  Species  Function  <phi|h_atom|phi> (log., in eV)  <phi|h_atom|phi> (rad., in eV)
           1        1             -24851.3167505682             -24851.3148165635
           1        2              -3549.2998457785              -3549.2998098031
           1        3               -640.0608571327               -640.0608534886
           1        4                -88.6252603131                -88.6252593316
           1        5                 -4.2849374515                 -4.2849400622
           1        6                  4.9432123540                  4.9432188418
           1        7              -3181.3035399559              -3181.3035364574
           1        8               -519.8284281886               -519.8284264063
           1        9                -54.3697495804                -54.3697489261
           1       10                  0.8628369484                  0.8628370487
           1       11               -329.2082917394               -329.2082912864
           1       12                 -6.6230267036                 -6.6230265076
           1       13                  5.4924295291                  5.4924115607
           1       14                 25.0740861942                 25.0740861175
           1       15                 38.8271273823                 38.8271278029
           2       16             -12689.6974611609             -12689.6967666984
           2       17              -1610.9846578580              -1610.9846472470
           2       18               -213.5308789869               -213.5308777267
           2       19                -17.0464428502                -17.0464426496
           2       20                  6.7356859379                  6.7356842047
           2       21              -1416.6548010133              -1416.6548002108
           2       22               -152.9535734377               -152.9535727493
           2       23                 -6.4896265677                 -6.4896303794
           2       24                  5.2703037283                  5.2701679583
           2       25                -53.1152220964                -53.1152219035
           2       26                  7.6186674138                  7.6186665630
           2       27                 23.1072799052                 23.1072803137

  Preparing densities etc. for the partition functions (integrals / Hartree potential).

  Preparations completed.
  max(cpu_time)          :      0.557 s.
  Wall clock time (cpu1) :      0.629 s.
------------------------------------------------------------

------------------------------------------------------------
          Begin self-consistency loop: Initialization.

          Date     :  20200420, Time     :  204040.402
------------------------------------------------------------

  Initializing index lists of integration centers etc. from given atomic structure:
  Mapping all atomic coordinates to central unit cell.

  Initializing the k-points
  Using symmetry for reducing the k-points
  | k-points reduced from:      448 to      226
  | Number of k-points                             :       226
  The eigenvectors in the calculations are COMPLEX.
  | K-points in task   0:         9
  | K-points in task   1:        10
  | K-points in task   2:        10
  | K-points in task   3:        10
  | K-points in task   4:        10
  | K-points in task   5:        10
  | K-points in task   6:        10
  | K-points in task   7:        10
  | K-points in task   8:        10
  | K-points in task   9:        10
  | K-points in task  10:        10
  | K-points in task  11:         9
  | K-points in task  12:         9
  | K-points in task  13:         9
  | K-points in task  14:         9
  | K-points in task  15:         9
  | K-points in task  16:         9
  | K-points in task  17:         9
  | K-points in task  18:         9
  | K-points in task  19:         9
  | K-points in task  20:         9
  | K-points in task  21:         9
  | K-points in task  22:         9
  | K-points in task  23:         9
  | Number of basis functions in the Hamiltonian integrals :      5594
  | Number of basis functions in a single unit cell        :       468
  | Number of centers in hartree potential         :      1324
  | Number of centers in hartree multipole         :       769
  | Number of centers in electron density summation:       595
  | Number of centers in basis integrals           :       640
  | Number of centers in integrals                 :       236
  | Number of centers in hamiltonian               :       596
  | Consuming        303 KiB for k_phase.
  | Number of super-cells (origin) [n_cells]                     :         567
  | Number of super-cells (after PM_index) [n_cells]             :          86
  | Number of super-cells in hamiltonian [n_cells_in_hamiltonian]:          86
  | Size of matrix packed + index [n_hamiltonian_matrix_size] :     1292874

  Initializing relaxation algorithms.
  | Estimated reciprocal-space cutoff momentum G_max:         2.42860603 bohr^-1 .
  | Reciprocal lattice points for long-range Hartree potential:     418
  Partitioning the integration grid into batches with parallel hashing+maxmin method.
  | Number of batches:     4171
  | Maximal batch size:     110
  | Minimal batch size:      49
  | Average batch size:      92.097
  | Standard deviation of batch sizes:      11.076

  Integration load balanced across    24 MPI tasks.
  Work distribution over tasks is as follows:
  Task     0 has      15977 integration points.
  Task     1 has      15980 integration points.
  Task     2 has      15975 integration points.
  Task     3 has      16048 integration points.
  Task     4 has      16015 integration points.
  Task     5 has      16047 integration points.
  Task     6 has      16045 integration points.
  Task     7 has      15984 integration points.
  Task     8 has      16050 integration points.
  Task     9 has      15989 integration points.
  Task    10 has      15989 integration points.
  Task    11 has      15998 integration points.
  Task    12 has      16018 integration points.
  Task    13 has      15999 integration points.
  Task    14 has      15975 integration points.
  Task    15 has      15979 integration points.
  Task    16 has      15988 integration points.
  Task    17 has      16019 integration points.
  Task    18 has      15984 integration points.
  Task    19 has      15983 integration points.
  Task    20 has      16045 integration points.
  Task    21 has      16016 integration points.
  Task    22 has      16019 integration points.
  Task    23 has      16014 integration points.
  Initializing partition tables, free-atom densities, potentials, etc. across the integration grid (initialize_grid_storage).
  | initialize_grid_storage: Actual outermost partition radius vs. multipole_radius_free
  | (-- VB: in principle, multipole_radius_free should be larger, hence this output)
  | Species        1: Confinement radius =              6.000000000000000 AA, multipole_radius_free =              6.058219618167466 AA.
  | Species        1: outer_partition_radius set to              6.058219618167466 AA .
  | Species        2: Confinement radius =              6.000000000000000 AA, multipole_radius_free =              6.037996416842453 AA.
  | Species        2: outer_partition_radius set to              6.037996416842453 AA .
  | The sparse table of interatomic distances needs       2897.83 kbyte instead of      3276.80 kbyte of memory.
  | Net number of integration points:   384136
  | of which are non-zero points    :   322114
  | Numerical average free-atom electrostatic potential    :    -17.07341138 eV
  Renormalizing the initial density to the exact electron count on the 3D integration grid.
  | Initial density: Formal number of electrons (from input files) :     456.0000000000
  | Integrated number of electrons on 3D grid     :     456.0000654199
  | Charge integration error                      :       0.0000654199
  | Normalization factor for density and gradient :       0.9999998565
  Renormalizing the free-atom superposition density to the exact electron count on the 3D integration grid.
  | Formal number of electrons (from input files) :     456.0000000000
  | Integrated number of electrons on 3D grid     :     456.0000654199
  | Charge integration error                      :       0.0000654199
  | Normalization factor for density and gradient :       0.9999998565
  Obtaining max. number of non-zero basis functions in each batch (get_n_compute_maxes).
  | Maximal number of non-zero basis functions:     1018 in task     0
  | Maximal number of non-zero basis functions:     1019 in task     1
  | Maximal number of non-zero basis functions:     1016 in task     2
  | Maximal number of non-zero basis functions:     1035 in task     3
  | Maximal number of non-zero basis functions:     1009 in task     4
  | Maximal number of non-zero basis functions:     1025 in task     5
  | Maximal number of non-zero basis functions:     1017 in task     6
  | Maximal number of non-zero basis functions:     1019 in task     7
  | Maximal number of non-zero basis functions:     1020 in task     8
  | Maximal number of non-zero basis functions:     1013 in task     9
  | Maximal number of non-zero basis functions:     1029 in task    10
  | Maximal number of non-zero basis functions:     1038 in task    11
  | Maximal number of non-zero basis functions:     1011 in task    12
  | Maximal number of non-zero basis functions:     1028 in task    13
  | Maximal number of non-zero basis functions:     1008 in task    14
  | Maximal number of non-zero basis functions:     1037 in task    15
  | Maximal number of non-zero basis functions:     1011 in task    16
  | Maximal number of non-zero basis functions:     1046 in task    17
  | Maximal number of non-zero basis functions:     1016 in task    18
  | Maximal number of non-zero basis functions:     1011 in task    19
  | Maximal number of non-zero basis functions:     1020 in task    20
  | Maximal number of non-zero basis functions:     1052 in task    21
  | Maximal number of non-zero basis functions:     1026 in task    22
  | Maximal number of non-zero basis functions:     1003 in task    23
  Allocating       18.895 MB for KS_eigenvector_complex
  Integrating Hamiltonian matrix: batch-based integration.
  Time summed over all CPUs for integration: real work       63.798 s, elapsed       64.943 s
  Integrating overlap matrix.
  Time summed over all CPUs for integration: real work       46.095 s, elapsed       46.947 s
  Decreasing sparse matrix size:
  | Tolerance:  0.1000E-12
  Hamiltonian matrix
  | Array has  1119132 nonzero elements out of  1292874 elements
  | Sparsity factor is 0.134
  Overlap matrix
  | Array has  1032679 nonzero elements out of  1292874 elements
  | Sparsity factor is 0.201
  New size of hamiltonian matrix:     1119235

  Updating Kohn-Sham eigenvalues and eigenvectors using ELSI and the (modified) LAPACK eigensolver.
  Singularity check in k-point 24, task 0 (analysis for other k-points/tasks may follow below):
  Overlap matrix is not singular
  | Lowest and highest eigenvalues :  0.7965E-03,  0.6873E+01
  Finished singularity check of overlap matrix
  | Time :     0.075 s
  Starting LAPACK eigensolver
  Finished Cholesky decomposition
  | Time :     0.019 s
  Finished transformation to standard eigenproblem
  | Time :     0.021 s
  Finished solving standard eigenproblem
  | Time :     0.072 s
  Finished back-transformation of eigenvectors
  | Time :     0.008 s

  Obtaining occupation numbers and chemical potential using ELSI.
  | Chemical potential (Fermi level):    -4.63992712 eV
  Writing Kohn-Sham eigenvalues.
  K-point:       1 at    0.000000    0.000000    0.000000 (in units of recip. lattice)

  State    Occupation    Eigenvalue [Ha]    Eigenvalue [eV]
      1       2.00000        -913.279509       -24851.59989
      2       2.00000        -913.279494       -24851.59948
      3       2.00000        -913.279493       -24851.59945
      4       2.00000        -913.279492       -24851.59942
      5       2.00000        -466.350246       -12690.03585
      6       2.00000        -466.350242       -12690.03574
      7       2.00000        -466.350242       -12690.03573
      8       2.00000        -466.350240       -12690.03570
      9       2.00000        -466.350240       -12690.03568
     10       2.00000        -466.350237       -12690.03562
     11       2.00000        -466.350235       -12690.03554
     12       2.00000        -466.350229       -12690.03540
     13       2.00000        -130.445094        -3549.59160
     14       2.00000        -130.445079        -3549.59119
     15       2.00000        -130.445078        -3549.59117
     16       2.00000        -130.445077        -3549.59113
     17       2.00000        -116.921502        -3181.59595
     18       2.00000        -116.921493        -3181.59571
     19       2.00000        -116.921487        -3181.59553
     20       2.00000        -116.921486        -3181.59551
     21       2.00000        -116.921485        -3181.59547
     22       2.00000        -116.921478        -3181.59529
     23       2.00000        -116.921477        -3181.59527
     24       2.00000        -116.921476        -3181.59523
     25       2.00000        -116.921439        -3181.59424
     26       2.00000        -116.921424        -3181.59383
     27       2.00000        -116.921423        -3181.59380
     28       2.00000        -116.921422        -3181.59377
     29       2.00000         -59.215459        -1611.33461
     30       2.00000         -59.215454        -1611.33450
     31       2.00000         -59.215454        -1611.33449
     32       2.00000         -59.215453        -1611.33446
     33       2.00000         -59.215452        -1611.33444
     34       2.00000         -59.215450        -1611.33438
     35       2.00000         -59.215447        -1611.33430
     36       2.00000         -59.215442        -1611.33415
     37       2.00000         -52.073975        -1417.00496
     38       2.00000         -52.073971        -1417.00485
     39       2.00000         -52.073971        -1417.00485
     40       2.00000         -52.073969        -1417.00481
     41       2.00000         -52.073969        -1417.00479
     42       2.00000         -52.073967        -1417.00473
     43       2.00000         -52.073964        -1417.00465
     44       2.00000         -52.073958        -1417.00451
     45       2.00000         -52.073949        -1417.00426
     46       2.00000         -52.073945        -1417.00414
     47       2.00000         -52.073945        -1417.00414
     48       2.00000         -52.073944        -1417.00410
     49       2.00000         -52.073943        -1417.00409
     50       2.00000         -52.073941        -1417.00403
     51       2.00000         -52.073938        -1417.00395
     52       2.00000         -52.073933        -1417.00380
     53       2.00000         -52.073902        -1417.00298
     54       2.00000         -52.073898        -1417.00287
     55       2.00000         -52.073898        -1417.00286
     56       2.00000         -52.073897        -1417.00282
     57       2.00000         -52.073896        -1417.00280
     58       2.00000         -52.073894        -1417.00275
     59       2.00000         -52.073891        -1417.00267
     60       2.00000         -52.073886        -1417.00252
     61       2.00000         -23.533289         -640.37336
     62       2.00000         -23.533272         -640.37292
     63       2.00000         -23.533271         -640.37290
     64       2.00000         -23.533270         -640.37286
     65       2.00000         -19.115083         -520.14788
     66       2.00000         -19.115067         -520.14743
     67       2.00000         -19.115065         -520.14740
     68       2.00000         -19.115065         -520.14737
     69       2.00000         -19.114996         -520.14550
     70       2.00000         -19.114979         -520.14505
     71       2.00000         -19.114978         -520.14503
     72       2.00000         -19.114977         -520.14498
     73       2.00000         -19.114462         -520.13096
     74       2.00000         -19.114446         -520.13054
     75       2.00000         -19.114445         -520.13051
     76       2.00000         -19.114444         -520.13048
     77       2.00000         -12.109890         -329.52687
     78       2.00000         -12.109874         -329.52643
     79       2.00000         -12.109873         -329.52640
     80       2.00000         -12.109871         -329.52636
     81       2.00000         -12.109855         -329.52591
     82       2.00000         -12.109838         -329.52546
     83       2.00000         -12.109837         -329.52543
     84       2.00000         -12.109836         -329.52540
     85       2.00000         -12.109510         -329.51654
     86       2.00000         -12.109494         -329.51611
     87       2.00000         -12.109493         -329.51608
     88       2.00000         -12.109492         -329.51605
     89       2.00000         -12.109454         -329.51502
     90       2.00000         -12.109438         -329.51459
     91       2.00000         -12.109438         -329.51456
     92       2.00000         -12.109436         -329.51452
     93       2.00000         -12.109371         -329.51276
     94       2.00000         -12.109356         -329.51233
     95       2.00000         -12.109355         -329.51231
     96       2.00000         -12.109353         -329.51227
     97       2.00000          -7.861758         -213.92932
     98       2.00000          -7.861755         -213.92923
     99       2.00000          -7.861753         -213.92918
    100       2.00000          -7.861752         -213.92915
    101       2.00000          -7.861749         -213.92907
    102       2.00000          -7.861747         -213.92902
    103       2.00000          -7.861744         -213.92893
    104       2.00000          -7.861738         -213.92877
    105       2.00000          -5.636170         -153.36798
    106       2.00000          -5.636165         -153.36786
    107       2.00000          -5.636165         -153.36785
    108       2.00000          -5.636163         -153.36779
    109       2.00000          -5.636161         -153.36775
    110       2.00000          -5.636159         -153.36770
    111       2.00000          -5.636154         -153.36756
    112       2.00000          -5.636150         -153.36744
    113       2.00000          -5.635915         -153.36105
    114       2.00000          -5.635913         -153.36100
    115       2.00000          -5.635911         -153.36094
    116       2.00000          -5.635907         -153.36083
    117       2.00000          -5.635845         -153.35916
    118       2.00000          -5.635844         -153.35913
    119       2.00000          -5.635842         -153.35905
    120       2.00000          -5.635837         -153.35892
    121       2.00000          -5.635256         -153.34311
    122       2.00000          -5.635251         -153.34299
    123       2.00000          -5.635251         -153.34299
    124       2.00000          -5.635250         -153.34294
    125       2.00000          -5.635249         -153.34292
    126       2.00000          -5.635246         -153.34285
    127       2.00000          -5.635244         -153.34280
    128       2.00000          -5.635238         -153.34261
    129       2.00000          -3.273949          -89.08869
    130       2.00000          -3.273926          -89.08805
    131       2.00000          -3.273925          -89.08802
    132       2.00000          -3.273922          -89.08795
    133       2.00000          -2.020250          -54.97380
    134       2.00000          -2.020225          -54.97312
    135       2.00000          -2.020207          -54.97263
    136       2.00000          -2.020196          -54.97232
    137       2.00000          -2.019244          -54.94643
    138       2.00000          -2.019221          -54.94581
    139       2.00000          -2.019194          -54.94506
    140       2.00000          -2.019180          -54.94469
    141       2.00000          -2.013041          -54.77763
    142       2.00000          -2.013021          -54.77708
    143       2.00000          -2.013019          -54.77704
    144       2.00000          -2.013016          -54.77694
    145       2.00000          -1.969162          -53.58362
    146       2.00000          -1.969155          -53.58343
    147       2.00000          -1.969134          -53.58287
    148       2.00000          -1.969126          -53.58266
    149       2.00000          -1.968132          -53.55560
    150       2.00000          -1.968123          -53.55535
    151       2.00000          -1.968111          -53.55502
    152       2.00000          -1.968104          -53.55484
    153       2.00000          -1.967724          -53.54451
    154       2.00000          -1.967715          -53.54426
    155       2.00000          -1.967709          -53.54410
    156       2.00000          -1.967700          -53.54384
    157       2.00000          -1.967573          -53.54040
    158       2.00000          -1.967567          -53.54023
    159       2.00000          -1.967564          -53.54014
    160       2.00000          -1.967556          -53.53993
    161       2.00000          -1.967303          -53.53303
    162       2.00000          -1.967294          -53.53279
    163       2.00000          -1.967277          -53.53234
    164       2.00000          -1.967267          -53.53207
    165       2.00000          -1.967248          -53.53155
    166       2.00000          -1.967238          -53.53127
    167       2.00000          -1.967224          -53.53090
    168       2.00000          -1.967218          -53.53073
    169       2.00000          -1.967183          -53.52976
    170       2.00000          -1.967171          -53.52946
    171       2.00000          -1.967170          -53.52941
    172       2.00000          -1.967167          -53.52933
    173       2.00000          -1.967165          -53.52929
    174       2.00000          -1.967160          -53.52915
    175       2.00000          -1.967158          -53.52910
    176       2.00000          -1.967149          -53.52885
    177       2.00000          -1.966629          -53.51469
    178       2.00000          -1.966624          -53.51456
    179       2.00000          -1.966619          -53.51442
    180       2.00000          -1.966612          -53.51423
    181       2.00000          -1.966283          -53.50528
    182       2.00000          -1.966276          -53.50509
    183       2.00000          -1.966271          -53.50496
    184       2.00000          -1.966267          -53.50485
    185       2.00000          -0.759250          -20.66024
    186       2.00000          -0.740272          -20.14382
    187       2.00000          -0.720007          -19.59239
    188       2.00000          -0.718384          -19.54822
    189       2.00000          -0.652892          -17.76608
    190       2.00000          -0.640904          -17.43988
    191       2.00000          -0.639528          -17.40244
    192       2.00000          -0.627664          -17.07959
    193       2.00000          -0.418431          -11.38609
    194       2.00000          -0.410592          -11.17277
    195       2.00000          -0.389456          -10.59763
    196       2.00000          -0.376632          -10.24867
    197       2.00000          -0.370675          -10.08657
    198       2.00000          -0.369113          -10.04408
    199       2.00000          -0.366413           -9.97061
    200       2.00000          -0.366145           -9.96330
    201       2.00000          -0.364741           -9.92512
    202       2.00000          -0.362925           -9.87570
    203       2.00000          -0.361169           -9.82790
    204       2.00000          -0.351643           -9.56870
    205       2.00000          -0.342059           -9.30791
    206       2.00000          -0.330886           -9.00386
    207       2.00000          -0.324502           -8.83014
    208       2.00000          -0.316589           -8.61482
    209       2.00000          -0.316496           -8.61230
    210       2.00000          -0.305847           -8.32252
    211       2.00000          -0.288658           -7.85479
    212       2.00000          -0.286428           -7.79411
    213       2.00000          -0.284908           -7.75274
    214       2.00000          -0.280091           -7.62167
    215       2.00000          -0.279154           -7.59617
    216       2.00000          -0.277276           -7.54507
    217       2.00000          -0.276206           -7.51595
    218       2.00000          -0.275333           -7.49221
    219       2.00000          -0.273720           -7.44830
    220       2.00000          -0.270367           -7.35706
    221       2.00000          -0.265364           -7.22092
    222       2.00000          -0.263803           -7.17844
    223       2.00000          -0.263363           -7.16647
    224       2.00000          -0.257807           -7.01527
    225       2.00000          -0.224236           -6.10176
    226       2.00000          -0.215213           -5.85623
    227       2.00000          -0.212979           -5.79545
    228       0.00000          -0.164646           -4.48025
    229       0.00000          -0.153044           -4.16455
    230       0.00000          -0.135237           -3.67998
    231       0.00000          -0.129868           -3.53390
    232       0.00000          -0.129068           -3.51211
    233       0.00000          -0.126275           -3.43613
    234       0.00000          -0.115916           -3.15422
    235       0.00000          -0.114941           -3.12770
    236       0.00000          -0.082041           -2.23244
    237       0.00000          -0.037253           -1.01370
    238       0.00000          -0.030505           -0.83008
    239       0.00000          -0.002780           -0.07565
    240       0.00000           0.021995            0.59852
    241       0.00000           0.025789            0.70175
    242       0.00000           0.027240            0.74124
    243       0.00000           0.057592            1.56716
    244       0.00000           0.089280            2.42942
    245       0.00000           0.102427            2.78719
    246       0.00000           0.111598            3.03675
    247       0.00000           0.118636            3.22824
    248       0.00000           0.122833            3.34245
    249       0.00000           0.125061            3.40308
    250       0.00000           0.126000            3.42864
    251       0.00000           0.137618            3.74476
    252       0.00000           0.151852            4.13209
    253       0.00000           0.160428            4.36548
    254       0.00000           0.171232            4.65945
    255       0.00000           0.177027            4.81714
    256       0.00000           0.189810            5.16500
    257       0.00000           0.191786            5.21877
    258       0.00000           0.198581            5.40367
    259       0.00000           0.220118            5.98971
    260       0.00000           0.232022            6.31363
    261       0.00000           0.247574            6.73683
    262       0.00000           0.258055            7.02204
    263       0.00000           0.267225            7.27158
    264       0.00000           0.280402            7.63012
    265       0.00000           0.281590            7.66245
[...]
  |                x                y                z                |
  |                                                                   |
  |  x        -0.00008185       0.00000292      -0.00000577           |
  |  y         0.00000292       0.00015077       0.00000562           |
  |  z        -0.00000577       0.00000562      -0.00000614           |
  |                                                                   |
  |  Pressure:      -0.00002092   [eV/A**3]                           |
  |                                                                   |
  +-------------------------------------------------------------------+

 * Warning: Stress tensor is anisotropic. Be aware that pressure is an isotropic quantity.


  Leaving Libmbd.

  Timings for VdW correction (Tkatchenko-Scheffler 2009 or later):
  | CPU time:        4.789 s, Wall clock time:        4.791 s.
  Removing unitary transformations (pure translations, rotations) from forces on atoms.
  Atomic forces before filtering:
  | Net force on center of mass :  -0.290113E-04  0.439693E-04 -0.838987E-04 eV/A
  Atomic forces after filtering:
  | Net force on center of mass :  -0.139380E-17 -0.522674E-18 -0.174225E-18 eV/A

  Energy and forces in a compact form:
  | Total energy uncorrected      :         -0.108791111514834E+07 eV
  | Total energy corrected        :         -0.108791111610893E+07 eV  <-- do not rely on this value for anything but (periodic) metals
  | Electronic free energy        :         -0.108791111706951E+07 eV
  Total atomic forces (unitary forces cleaned) [eV/Ang]:
  |    1          0.574695305917166E-03          0.498946050267262E-04          0.866272232291429E-03
  |    2         -0.104354541078692E-02          0.162562201820693E-03         -0.587749610250987E-03
  |    3         -0.753291995411325E-03          0.169822990335981E-02          0.900295981518906E-03
  |    4          0.539532313535808E-03          0.144990626886167E-02         -0.628142628414645E-03
  |    5         -0.315631935991247E-03         -0.120745113128922E-02          0.985298064501010E-03
  |    6         -0.292374719763174E-02          0.358521626375558E-03         -0.408032974694214E-03
  |    7          0.106040475998035E-03         -0.732169993966055E-03         -0.114019408097700E-02
  |    8         -0.136313138241914E-02          0.545840481960882E-03          0.114821740686605E-02
  |    9          0.444107117719042E-03         -0.139762739624229E-03         -0.143447751257402E-02
  |   10          0.236626057122563E-02         -0.217426087218022E-02          0.683191215668752E-03
  |   11          0.282835894053376E-03          0.638212356082609E-03          0.606544875827014E-03
  |   12          0.208587624379131E-02         -0.649522706428227E-03         -0.991222969762294E-03

  ------------------------------------ 
  Start decomposition of the XC Energy 
  ------------------------------------ 
  X and C from original XC functional choice 
  Hartree-Fock Energy :          0.000000000 Ha              0.000000000 eV
  X Energy            :      -1261.088272691 Ha         -34315.957876633 eV
  C Energy            :        -23.235720328 Ha           -632.276119981 eV
  Total XC Energy     :      -1284.323993019 Ha         -34948.233996614 eV
  ------------------------------------ 
  LDA X and C from self-consistent density 
  X Energy LDA        :      -1197.516539796 Ha         -32586.083009493 eV
  C Energy LDA        :        -42.068002451 Ha          -1144.728589852 eV
  ------------------------------------ 
  End decomposition of the XC Energy 
  ------------------------------------ 

------------------------------------------------------------
  Relaxation / MD: End force evaluation.       :  max(cpu_time)    wall_clock(cpu1)
  | Time for this force evaluation             :      311.379 s         312.376 s

------------------------------------------------------------
  Geometry optimization: Attempting to predict improved coordinates.

  +-------------------------------------------------------------------+
  | Generalized derivatives on lattice vectors [eV/A]                 |
  +-------------------------------------------------------------------+
  |lattice_vector      -0.00367611       0.00013114      -0.00025896  |
  |lattice_vector       0.00012868       0.00664393       0.00024755  |
  |lattice_vector      -0.00020029       0.00019514      -0.00021338  |
  +-------------------------------------------------------------------+
  | Forces on lattice vectors cleaned from atomic contributions [eV/A]|
  +-------------------------------------------------------------------+
  |lattice_vector       0.00367611      -0.00013114       0.00025896  |
  |lattice_vector      -0.00012868      -0.00664393      -0.00024755  |
  |lattice_vector       0.00020029      -0.00019514       0.00021338  |
  +-------------------------------------------------------------------+
  Symmetrized total atomic cartesian forces [eV/Ang]:
  |   1     0.5746953059E-03     0.4989460503E-04     0.8662722323E-03
  |   2    -0.1043545411E-02     0.1625622018E-03    -0.5877496103E-03
  |   3    -0.7532919954E-03     0.1698229903E-02     0.9002959815E-03
  |   4     0.5395323135E-03     0.1449906269E-02    -0.6281426284E-03
  |   5    -0.3156319360E-03    -0.1207451131E-02     0.9852980645E-03
  |   6    -0.2923747198E-02     0.3585216264E-03    -0.4080329747E-03
  |   7     0.1060404760E-03    -0.7321699940E-03    -0.1140194081E-02
  |   8    -0.1363131382E-02     0.5458404820E-03     0.1148217407E-02
  |   9     0.4441071177E-03    -0.1397627396E-03    -0.1434477513E-02
  |  10     0.2366260571E-02    -0.2174260872E-02     0.6831912157E-03
  |  11     0.2828358941E-03     0.6382123561E-03     0.6065448758E-03
  |  12     0.2085876244E-02    -0.6495227064E-03    -0.9912229698E-03
  +-------------------------------------------------------------------+
  | Symmetrized forces on lattice vectors cleaned from symmetrized
  | atomic contributions [eV/A]|
  +-------------------------------------------------------------------+
  |lattice_vector       0.00367611       0.00000000       0.00000000  |
  |lattice_vector       0.00000000      -0.00664393       0.00000000  |
  |lattice_vector       0.00000000       0.00000000       0.00021338  |
  +-------------------------------------------------------------------+
  Removing unitary transformations (pure translations, rotations) from forces on atoms.
  Atomic forces before filtering:
  | Net force on center of mass :  -0.104535E-17 -0.958236E-18  0.174225E-18 eV/A
  Atomic forces after filtering:
  | Net force on center of mass :  -0.348449E-18  0.609787E-18  0.174225E-18 eV/A
  Net remaining forces (excluding translations, rotations) in present geometry:
  || Forces on atoms   || =   0.292375E-02 eV/A.
  || Forces on lattice || =   0.664393E-02 eV/A^3.
  Maximum force component is  0.664393E-02 eV/A.
  Present geometry is converged.

  Symmetry-reduced parameters:
  | atomic   1          0.501634503304462E+00
  | atomic   2          0.165550577297735E-02
  | atomic   3          0.151565735238544E-02
  | atomic   4          0.166850366716666E-02
  | atomic   5          0.166162053387695E-02
  | atomic   6          0.501823887363247E+00
  | atomic   7          0.172708680135905E-02
  | atomic   8          0.501635353429113E+00
  | atomic   9          0.149204889052629E-02
  | atomic  10          0.501696407732707E+00
  | atomic  11          0.501644310230745E+00
  | atomic  12          0.501848744763831E+00
  | atomic  13          0.613758037544520E+00
  | atomic  14          0.120076498173722E+00
  | atomic  15          0.405246755003139E+00
  | atomic  16          0.889678258127758E+00
  | atomic  17          0.883304913862310E+00
  | atomic  18          0.905131290622033E+00
  | atomic  19          0.113708975763742E+00
  | atomic  20          0.383323180184381E+00
  | atomic  21          0.598261143139250E+00
  | atomic  22          0.389627012478567E+00
  | atomic  23          0.620062928537888E+00
  | atomic  24          0.980898864548183E-01
  | atomic  25          0.389640148312888E+00
  | atomic  26          0.883319536919415E+00
  | atomic  27          0.598252243767657E+00
  | atomic  28          0.113715474621813E+00
  | atomic  29          0.120100069630373E+00
  | atomic  30          0.981025051626054E-01
  | atomic  31          0.889598231762515E+00
  | atomic  32          0.620051647878731E+00
  | atomic  33          0.405253927363138E+00
  | atomic  34          0.613692370547677E+00
  | atomic  35          0.383309485206427E+00
  | atomic  36          0.905126957256768E+00
  | lattice  1          0.583806416738757E+01
  | lattice  2          0.595002482706349E+01
  | lattice  3          0.754822900508884E+01
  Symmetry-reduced forces:
  | atomic   1          0.335510807264085E-02
  | atomic   2          0.296874138645548E-03
  | atomic   3          0.653882119008522E-02
  | atomic   4         -0.609228506975684E-02
  | atomic   5          0.967249136775226E-03
  | atomic   6         -0.443646865582616E-02
  | atomic   7         -0.439776700599074E-02
  | atomic   8          0.101045100870525E-01
  | atomic   9          0.679564024086593E-02
  | atomic  10          0.314982426680112E-02
  | atomic  11          0.862697829664194E-02
  | atomic  12         -0.474136440713216E-02
  | atomic  13         -0.184267949559366E-02
  | atomic  14         -0.718436420863674E-02
  | atomic  15          0.743725542912442E-02
  | atomic  16         -0.170690237489937E-01
  | atomic  17          0.213321257797375E-02
  | atomic  18         -0.307992633461955E-02
  | atomic  19          0.619071103216848E-03
  | atomic  20         -0.435642964172895E-02
  | atomic  21         -0.860644603346118E-02
  | atomic  22         -0.795804847914267E-02
  | atomic  23          0.324776441928355E-02
  | atomic  24          0.866700793465417E-02
  | atomic  25          0.259272585043731E-02
  | atomic  26         -0.831591770662569E-03
  | atomic  27         -0.108277647675589E-01
  | atomic  28          0.138143810515744E-01
  | atomic  29         -0.129369061699850E-01
  | atomic  30          0.515688375013278E-02
  | atomic  31          0.165121409832404E-02
  | atomic  32          0.379737936363021E-02
  | atomic  33          0.457833962460547E-02
  | atomic  34          0.121774793564830E-01
  | atomic  35         -0.386467622898942E-02
  | atomic  36         -0.748197797087004E-02
  | lattice  1          0.367611252176438E-02
  | lattice  2         -0.664393380896513E-02
  | lattice  3          0.213384766846102E-03
------------------------------------------------------------
  Final atomic structure:
                         x [A]             y [A]             z [A]
  lattice_vector         5.83806417        0.00000000        0.00000000
  lattice_vector         0.00000000        5.95002483        0.00000000
  lattice_vector         0.00000000        0.00000000        7.54822901

            atom        -2.90948975        0.00985030        0.01144053  Pd
            atom         0.00974083        0.00988668       -3.76034738  Pd
            atom         0.01008284       -2.96528202        0.01126233  Pd
            atom        -2.90912835       -2.96522873       -3.76015975  Pd
            atom        -2.25490536        0.71445815        3.05889531  Se
            atom        -0.64406541       -0.69433866       -0.71609074  Se
            atom         0.66384030        2.28078244       -3.03241689  Se
            atom         2.27466750       -2.26063501        0.74040493  Se
            atom         2.27474419       -0.69425165       -3.03248407  Se
            atom         0.66387824        0.71459840        0.74050017  Se
            atom        -0.64453261       -2.26070213        3.05894945  Se
            atom        -2.25528873        2.28070095       -0.71612345  Se

  Fractional coordinates:
                         L1                L2                L3
       atom_frac        -0.49836550        0.00165551        0.00151566  Pd
       atom_frac         0.00166850        0.00166162       -0.49817611  Pd
       atom_frac         0.00172709       -0.49836465        0.00149205  Pd
       atom_frac        -0.49830359       -0.49835569       -0.49815126  Pd
       atom_frac        -0.38624196        0.12007650        0.40524676  Se
       atom_frac        -0.11032174       -0.11669509       -0.09486871  Se
       atom_frac         0.11370898        0.38332318       -0.40173886  Se
       atom_frac         0.38962701       -0.37993707        0.09808989  Se
       atom_frac         0.38964015       -0.11668046       -0.40174776  Se
       atom_frac         0.11371547        0.12010007        0.09810251  Se
       atom_frac        -0.11040177       -0.37994835        0.40525393  Se
       atom_frac        -0.38630763        0.38330949       -0.09487304  Se
------------------------------------------------------------

------------------------------------------------------------------------------
  Final output of selected total energy values:

  The following output summarizes some interesting total energy values
  at the end of a run (AFTER all relaxation, molecular dynamics, etc.).

  | Total energy of the DFT / Hartree-Fock s.c.f. calculation      :       -1087911.115148341 eV
  | Final zero-broadening corrected energy (caution - metals only) :       -1087911.116108926 eV
  | For reference only, the value of 1 Hartree used in FHI-aims is :             27.211384500 eV
  | For reference only, the overall average (free atom contribution
  | + realspace contribution) of the electrostatic potential after
  | s.c.f. convergence is                                          :            -16.896971246 eV

  Before relying on these values, please be sure to understand exactly which
  total energy value is referred to by a given number. Different objects may
  all carry the same name 'total energy'. Definitions:

  Total energy of the DFT / Hartree-Fock s.c.f. calculation:
  | Note that this energy does not include ANY quantities calculated after the
  | s.c.f. cycle, in particular not ANY RPA, MP2, etc. many-body perturbation terms.

  Final zero-broadening corrected energy:
  | For metallic systems only, a broadening of the occupation numbers at the Fermi
  | level can be extrapolated back to zero broadening by an electron-gas inspired
  | formula. For all systems that are not real metals, this value can be
  | meaningless and should be avoided.

------------------------------------------------------------------------------
  Methods described in the following list of references were used in this FHI-aims run.
  If you publish the results, please make sure to cite these reference if they apply.
  FHI-aims is an academic code, and for our developers (often, Ph.D. students
  and postdocs), scientific credit in the community is essential.
  Thank you for helping us!

  For any use of FHI-aims, please cite:

    Volker Blum, Ralf Gehrke, Felix Hanke, Paula Havu, Ville Havu,
    Xinguo Ren, Karsten Reuter, and Matthias Scheffler
    'Ab initio molecular simulations with numeric atom-centered orbitals'
    Computer Physics Communications 180, 2175-2196 (2009)
    http://dx.doi.org/10.1016/j.cpc.2009.06.022


  For the analytical stress tensor used in your run, please cite:

    Franz Knuth, Christian Carbogno, Viktor Atalla, Volker Blum, Matthias Scheffler
    'All-electron formalism for total energy strain derivatives and
    stress tensor components for numeric atom-centered orbitals'
    Computer Physics Communications 190, 33-50 (2015).
    http://dx.doi.org/10.1016/j.cpc.2015.01.003


  The provided symmetry information was generated with SPGlib:

    Atsushi Togo, Yusuke Seto, Dimitar Pashov
    SPGlib 1.7.3 obtained from http://spglib.sourceforge.net
    Copyright (C) 2008 Atsushi Togo


  The ELSI infrastructure was used in your run to solve the Kohn-Sham electronic structure.
  Please check out http://elsi-interchange.org to learn more.
  If scalability is important for your project, please acknowledge ELSI by citing:

    V. W-z. Yu, F. Corsetti, A. Garcia, W. P. Huhn, M. Jacquelin, W. Jia,
    B. Lange, L. Lin, J. Lu, W. Mi, A. Seifitokaldani, A. Vazquez-Mayagoitia,
    C. Yang, H. Yang, and V. Blum
    'ELSI: A unified software interface for Kohn-Sham electronic structure solvers'
    Computer Physics Communications 222, 267-285 (2018).
    http://dx.doi.org/10.1016/j.cpc.2017.09.007


  For the real-space grid partitioning and parallelization used in this calculation, please cite:

    Ville Havu, Volker Blum, Paula Havu, and Matthias Scheffler,
    'Efficient O(N) integration for all-electron electronic structure calculation'
    'using numerically tabulated basis functions'
    Journal of Computational Physics 228, 8367-8379 (2009).
    http://dx.doi.org/10.1016/j.jcp.2009.08.008

  Of course, there are many other important community references, e.g., those cited in the
  above references. Our list is limited to references that describe implementations in the
  FHI-aims code. The reason is purely practical (length of this list) - please credit others as well.

------------------------------------------------------------
          Leaving FHI-aims.
          Date     :  20200420, Time     :  212006.115

          Computational steps:
          | Number of self-consistency cycles          :          130
          | Number of SCF (re)initializations          :            6
          | Number of relaxation steps                 :            5

          Detailed time accounting                     :  max(cpu_time)    wall_clock(cpu1)
          | Total time                                 :     2365.985 s        2367.328 s
          | Preparation time                           :        0.557 s           0.629 s
          | Boundary condition initalization           :        0.725 s           0.717 s
          | Grid partitioning                          :        2.058 s           2.059 s
          | Preloading free-atom quantities on grid    :        5.687 s           5.686 s
          | Free-atom superposition energy             :        0.856 s           0.856 s
          | Total time for integrations                :      363.919 s         363.936 s
          | Total time for solution of K.-S. equations :      188.162 s         188.344 s
          | Total time for EV reorthonormalization     :        2.404 s           2.204 s
          | Total time for density & force components  :     1387.170 s        1387.249 s
          | Total time for mixing & preconditioning    :       92.063 s          92.086 s
          | Total time for Hartree multipole update    :        0.559 s           0.562 s
          | Total time for Hartree multipole sum       :      290.752 s         290.773 s
          | Total time for total energy evaluation     :        0.261 s           0.283 s
          | Total time for scaled ZORA corrections     :        0.000 s           0.000 s
          | Total time for vdW correction              :       28.632 s          28.647 s

          Partial memory accounting:
          | Residual value for overall tracked memory usage across tasks:     0.000000 MB (should be 0.000000 MB)
          | Peak values for overall tracked memory usage:
          |   Minimum:       83.993 MB (on task  0 after allocating d_wave)
          |   Maximum:       89.176 MB (on task  9 after allocating d_wave)
          |   Average:       86.273 MB
          | Largest tracked array allocation:
          |   Minimum:       18.895 MB (KS_eigenvector_complex on task  0)
          |   Maximum:       20.995 MB (KS_eigenvector_complex on task  1)
          |   Average:       19.770 MB
          Note:  These values currently only include a subset of arrays which are explicitly tracked.
          The "true" memory usage will be greater.

          Have a nice day.
------------------------------------------------------------
