------------------------------------------------------------
          Invoking FHI-aims ...

          When using FHI-aims, please cite the following reference:

            Volker Blum, Ralf Gehrke, Felix Hanke, Paula Havu,
            Ville Havu, Xinguo Ren, Karsten Reuter, and Matthias Scheffler,
            'Ab Initio Molecular Simulations with Numeric Atom-Centered Orbitals',
            Computer Physics Communications 180, 2175-2196 (2009)

          In addition, many other developments in FHI-aims are likely important for
          your particular application. A partial list of references is given at the end of
          this file. Thank you for giving credit to the authors of these developments.

          For any questions about FHI-aims, please visit our slack channel at

            https://fhi-aims.slack.com

          and our main development and support site at

            https://aims-git.rz-berlin.mpg.de .

          The latter site, in particular, has a wiki to collect information, as well
          as an issue tracker to log discussions, suggest improvements, and report issues
          or bugs. https://aims-git.rz-berlin.mpg.de is also the main development site
          of the project and all new and updated code versions can be obtained there.
          Please send an email to aims-coordinators@fhi-berlin.mpg.de and we will add
          you to these sites. They are for you and everyone is welcome there.

------------------------------------------------------------



  Date     :  20210228, Time     :  121944.713
  Time zero on CPU 1             :   0.177390000000000E-01  s.
  Internal wall clock time zero  :           383746784.713  s.

  FHI-aims created a unique identifier for this run for later identification
  aims_uuid : FD20493C-1711-4362-AB70-4D58586D8079

  Build configuration of the current instance of FHI-aims
  -------------------------------------------------------
  FHI-aims version      : 201231
  Commit number         : 25ede1ec1
  CMake host system     : Linux-5.4.72-microsoft-standard-WSL2
  CMake version         : 3.19.4
  Fortran compiler      : /home/rkempt/miniconda3/envs/aims-env/bin/mpifort (GNU) version 9.3.0
  Fortran compiler flags: -O2 -ffree-line-length-none
  C compiler            : /home/rkempt/miniconda3/envs/aims-env/bin/gcc (GNU) version 9.3.0
  C compiler flags      : -O2 -funroll-loops -std=gnu99
  Using MPI
  Using LibXC
  Using i-PI
  Using RLSY
  Linking against: /home/rkempt/miniconda3/envs/aims-env/lib/libmkl_intel_lp64.so
                   /home/rkempt/miniconda3/envs/aims-env/lib/libmkl_sequential.so
                   /home/rkempt/miniconda3/envs/aims-env/lib/libmkl_core.so

  Using        2 parallel tasks.
  Task        0 on host DESKTOP-VF3RMOI reporting.
  Task        1 on host DESKTOP-VF3RMOI reporting.

  Performing system and environment tests:
  *** Environment variable OMP_NUM_THREADS is not set
  *** For performance reasons you might want to set it to 1
  | Checking for ScaLAPACK...
  | No ScaLAPACK compiled in.

  Obtaining array dimensions for all initial allocations:
  
  -----------------------------------------------------------------------
  Parsing control.in (first pass over file, find array dimensions only).
  The contents of control.in will be repeated verbatim below
  unless switched off by setting 'verbatim_writeout .false.' .
  in the first line of control.in .
  -----------------------------------------------------------------------
  
  #===============================================================================
  # FHI-aims file: control.in
  # Created using the Atomic Simulation Environment (ASE)
  # Sun Feb 28 12:18:51 2021
  #===============================================================================
  xc                                 pbe
  # include_spin_orbit
  ## Common choices of dispersion methods:
  # 	 vdw_correction_hirshfeld
  # 	 many_body_dispersion
  # 	 many_body_dispersion_nl
  output_level 	 	 MD_light
  relativistic                       atomic_zora scalar
  spin                               none
  k_grid                             3 3 2
  check_stacksize .false.
  
  ### SCF settings
  adjust_scf 	 always 	 3
  sc_iter_limit 	 100
  # frozen_core_scf 	 .true.
  # charge_mix_param 	 0.02
  # occupation_type 	 gaussian 	 0.1
  # sc_accuracy_rho 	 1E-6 	 	 # electron density convergence
  # elsi_restart 	 read_and_write 	 1000
  
  ### Mulliken-projected band structure section
  ## Brillouin Zone section Nr. 1
  output band_mulliken 0.000000 -0.500000 0.000000 	 0.000000 0.000000 0.000000 	 8 	 X G
  output band_mulliken 0.000000 0.000000 0.000000 	 0.500000 0.000000 0.000000 	 9 	 G Y
  ## Brillouin Zone section Nr. 2
  output band_mulliken 0.500000 -0.500000 0.000000 	 0.000000 0.000000 0.000000 	 11 	 L G
  output band_mulliken 0.000000 0.000000 0.000000 	 -0.500000 0.000000 0.500000 	 11 	 G Z
  ## Brillouin Zone section Nr. 3
  output band_mulliken -0.500000 -0.500000 0.500000 	 0.000000 0.000000 0.000000 	 14 	 N G
  output band_mulliken 0.000000 0.000000 0.000000 	 0.000000 0.000000 0.500000 	 6 	 G M
  ## Brillouin Zone section Nr. 4
  output band_mulliken 0.000000 -0.500000 0.500000 	 0.000000 0.000000 0.000000 	 10 	 R G
  # band_mulliken_orbit_num 50 	 # number of orbitals to be written out, default is 50 for scalar and 100 for soc
  #===============================================================================
  
  ################################################################################
  #
  #  FHI-aims code project
  #  VB, Fritz-Haber Institut, 2009
  #
  #  Suggested "light" defaults for O atom (to be pasted into control.in file)
  #  Be sure to double-check any results obtained with these settings for post-processing,
  #  e.g., with the "tight" defaults and larger basis sets.
  #
  ################################################################################
    species        O
  #     global species definitions
      nucleus             8
      mass                15.9994
  #
      l_hartree           4
  #
      cut_pot             3.5  1.5  1.0
      basis_dep_cutoff    1e-4
  #
      radial_base         36 5.0
      radial_multiplier   1
       angular_grids specified
        division   0.2659   50
        division   0.4451  110
        division   0.6052  194
        division   0.7543  302
  #      division   0.8014  434
  #      division   0.8507  590
  #      division   0.8762  770
  #      division   0.9023  974
  #      division   1.2339 1202
  #      outer_grid 974
        outer_grid 302
  ################################################################################
  #
  #  Definition of "minimal" basis
  #
  ################################################################################
  #     valence basis states
      valence      2  s   2.
      valence      2  p   4.
  #     ion occupancy
      ion_occ      2  s   1.
      ion_occ      2  p   3.
  ################################################################################
  #
  #  Suggested additional basis functions. For production calculations,
  #  uncomment them one after another (the most important basis functions are
  #  listed first).
  #
  #  Constructed for dimers: 1.0 A, 1.208 A, 1.5 A, 2.0 A, 3.0 A
  #
  ################################################################################
  #  "First tier" - improvements: -699.05 meV to -159.38 meV
       hydro 2 p 1.8
       hydro 3 d 7.6
       hydro 3 s 6.4
  #  "Second tier" - improvements: -49.91 meV to -5.39 meV
  #     hydro 4 f 11.6
  #     hydro 3 p 6.2
  #     hydro 3 d 5.6
  #     hydro 5 g 17.6
  #     hydro 1 s 0.75
  #  "Third tier" - improvements: -2.83 meV to -0.50 meV
  #     ionic 2 p auto
  #     hydro 4 f 10.8
  #     hydro 4 d 4.7
  #     hydro 2 s 6.8
  #  "Fourth tier" - improvements: -0.40 meV to -0.12 meV
  #     hydro 3 p 5
  #     hydro 3 s 3.3
  #     hydro 5 g 15.6
  #     hydro 4 f 17.6
  #     hydro 4 d 14
  # Further basis functions - -0.08 meV and below
  #     hydro 3 s 2.1
  #     hydro 4 d 11.6
  #     hydro 3 p 16
  #     hydro 2 s 17.2
  ################################################################################
  #
  #  FHI-aims code project
  #  VB, Fritz-Haber Institut, 2009
  #
  #  Suggested "light" defaults for C atom (to be pasted into control.in file)
  #  Be sure to double-check any results obtained with these settings for post-processing,
  #  e.g., with the "tight" defaults and larger basis sets.
  #
  ################################################################################
    species        C
  #     global species definitions
      nucleus             6
      mass                12.0107
  #
      l_hartree           4
  #
      cut_pot             3.5  1.5  1.0
      basis_dep_cutoff    1e-4
  #
      radial_base         34 5.0
      radial_multiplier   1
      angular_grids specified
        division   0.3326   50
        division   0.5710  110
        division   0.7727  194
        division   0.8772  302
  #      division   0.9334  434
  #      division   0.9625  590
  #      division   0.9924  770
  #      division   1.0230  974
  #      division   1.4589 1202
  #     outer_grid  974
       outer_grid 302
  ################################################################################
  #
  #  Definition of "minimal" basis
  #
  ################################################################################
  #     valence basis states
      valence      2  s   2.
      valence      2  p   2.
  #     ion occupancy
      ion_occ      2  s   1.
      ion_occ      2  p   1.
  ################################################################################
  #
  #  Suggested additional basis functions. For production calculations,
  #  uncomment them one after another (the most important basis functions are
  #  listed first).
  #
  #  Constructed for dimers: 1.0 A, 1.25 A, 1.5 A, 2.0 A, 3.0 A
  #
  ################################################################################
  #  "First tier" - improvements: -1214.57 meV to -155.61 meV
       hydro 2 p 1.7
       hydro 3 d 6
       hydro 2 s 4.9
  #  "Second tier" - improvements: -67.75 meV to -5.23 meV
  #     hydro 4 f 9.8
  #     hydro 3 p 5.2
  #     hydro 3 s 4.3
  #     hydro 5 g 14.4
  #     hydro 3 d 6.2
  #  "Third tier" - improvements: -2.43 meV to -0.60 meV
  #     hydro 2 p 5.6
  #     hydro 2 s 1.4
  #     hydro 3 d 4.9
  #     hydro 4 f 11.2
  #  "Fourth tier" - improvements: -0.39 meV to -0.18 meV
  #     hydro 2 p 2.1
  #     hydro 5 g 16.4
  #     hydro 4 d 13.2
  #     hydro 3 s 13.6
  #     hydro 4 f 17.6
  #  Further basis functions - improvements: -0.08 meV and below
  #     hydro 3 s 2
  #     hydro 3 p 6
  #     hydro 4 d 20
  ################################################################################
  #
  #  FHI-aims code project
  #  VB, Fritz-Haber Institut, 2009
  #
  #  Suggested "light" defaults for N atom (to be pasted into control.in file)
  #  Be sure to double-check any results obtained with these settings for post-processing,
  #  e.g., with the "tight" defaults and larger basis sets.
  #
  ################################################################################
    species        N
  #     global species definitions
      nucleus             7
      mass                14.0067
  #
      l_hartree           4
  #
      cut_pot             3.5  1.5  1.0
      basis_dep_cutoff    1e-4
  #
      radial_base         35 5.0
      radial_multiplier   1
      angular_grids       specified
        division   0.2599   50
        division   0.4601  110
        division   0.5885  194
        division   0.6503  302
  #      division   0.6939  434
  #      division   0.7396  590
  #      division   0.7632  770
  #      division   0.8122  974
  #      division   1.1604 1202
  #      outer_grid  974
        outer_grid  302
  ################################################################################
  #
  #  Definition of "minimal" basis
  #
  ################################################################################
  #     valence basis states
      valence      2  s   2.
      valence      2  p   3.
  #     ion occupancy
      ion_occ      2  s   1.
      ion_occ      2  p   2.
  ################################################################################
  #
  #  Suggested additional basis functions. For production calculations,
  #  uncomment them one after another (the most important basis functions are
  #  listed first).
  #
  #  Constructed for dimers: 1.0 A, 1.1 A, 1.5 A, 2.0 A, 3.0 A
  #
  ################################################################################
  #  "First tier" - improvements: -1193.42 meV to -220.60 meV
       hydro 2 p 1.8
       hydro 3 d 6.8
       hydro 3 s 5.8
  #  "Second tier" - improvements: -80.21 meV to -6.86 meV
  #     hydro 4 f 10.8
  #     hydro 3 p 5.8
  #     hydro 1 s 0.8
  #     hydro 5 g 16
  #     hydro 3 d 4.9
  #  "Third tier" - improvements: -4.29 meV to -0.53 meV
  #     hydro 3 s 16
  #     ionic 2 p auto
  #     hydro 3 d 6.6
  #     hydro 4 f 11.6
  #  "Fourth tier" - improvements: -0.75 meV to -0.25 meV
  #     hydro 2 p 4.5
  #     hydro 2 s 2.4
  #     hydro 5 g 14.4
  #     hydro 4 d 14.4
  #     hydro 4 f 16.8
  # Further basis functions - -0.21 meV and below
  #     hydro 3 p 14.8
  #     hydro 3 s 4.4
  #     hydro 3 d 19.6
  #     hydro 5 g 12.8
  ################################################################################
  #
  #  FHI-aims code project
  #  VB, Fritz-Haber Institut, 2009
  #
  #  Suggested "light" defaults for H atom (to be pasted into control.in file)
  #  Be sure to double-check any results obtained with these settings for post-processing,
  #  e.g., with the "tight" defaults and larger basis sets.
  #
  ################################################################################
    species        H
  #     global species definitions
      nucleus             1
      mass                1.00794
  #
      l_hartree           4
  #
      cut_pot             3.5  1.5  1.0
      basis_dep_cutoff    1e-4
  #
      radial_base         24 5.0
      radial_multiplier   1
      angular_grids       specified
        division   0.2421   50
        division   0.3822  110
        division   0.4799  194
        division   0.5341  302
  #      division   0.5626  434
  #      division   0.5922  590
  #      division   0.6542  770
  #      division   0.6868 1202
  #      outer_grid  770
        outer_grid  302
  ################################################################################
  #
  #  Definition of "minimal" basis
  #
  ################################################################################
  #     valence basis states
      valence      1  s   1.
  #     ion occupancy
      ion_occ      1  s   0.5
  ################################################################################
  #
  #  Suggested additional basis functions. For production calculations,
  #  uncomment them one after another (the most important basis functions are
  #  listed first).
  #
  #  Basis constructed for dimers: 0.5 A, 0.7 A, 1.0 A, 1.5 A, 2.5 A
  #
  ################################################################################
  #  "First tier" - improvements: -1014.90 meV to -62.69 meV
       hydro 2 s 2.1
       hydro 2 p 3.5
  #  "Second tier" - improvements: -12.89 meV to -1.83 meV
  #     hydro 1 s 0.85
  #     hydro 2 p 3.7
  #     hydro 2 s 1.2
  #     hydro 3 d 7
  #  "Third tier" - improvements: -0.25 meV to -0.12 meV
  #     hydro 4 f 11.2
  #     hydro 3 p 4.8
  #     hydro 4 d 9
  #     hydro 3 s 3.2
  
  -----------------------------------------------------------------------
  Completed first pass over input file control.in .
  -----------------------------------------------------------------------
  
  
  -----------------------------------------------------------------------
  Parsing geometry.in (first pass over file, find array dimensions only).
  The contents of geometry.in will be repeated verbatim below
  unless switched off by setting 'verbatim_writeout .false.' .
  in the first line of geometry.in .
  -----------------------------------------------------------------------
  
  #=======================================================
  # FHI-aims file: geometry.in
  # Created using the Atomic Simulation Environment (ASE)
  # Sun Feb 28 12:18:51 2021
  #=======================================================
  lattice_vector 7.3897899999999996 0.0000000000000000 0.0000000000000000
  lattice_vector -1.2818474371180213 7.5301252015125195 0.0000000000000000
  lattice_vector -0.0047714181390209 -0.1603846604786175 9.8255099260370233
  atom 0.0276995156156377 -0.1451213671929836 9.7926329218569297 O
  atom 2.9189242133603832 6.2589753210921701 7.3503164218028134 C
  atom 2.4404928574465434 7.4015622343743219 7.2969121436065034 O
  atom 3.2531526772284582 5.6451922278251763 8.5235160774416947 N
  atom 3.8447804969800705 4.4118929844237433 8.5043674328826260 C
  atom 4.1246995822370991 3.8215034839074202 9.6877016184267237 N
  atom 4.1536717164807193 3.7651841892517894 7.2585476230306156 C
  atom 3.7884028321669212 4.3859097321748379 6.0950836776582191 C
  atom 2.8594248202416011 6.0738050967179520 5.2349447607185038 H
  atom 4.6063694815547800 2.9285864476835104 9.6970470183692488 H
  atom 3.9051943247692567 4.4243503794011021 0.7445061941881720 H
  atom 4.6711000308000932 2.8071446951210466 7.2640609507089335 H
  atom 3.9777683013901028 3.9437965274326685 5.0969079867255029 H
  atom 3.1625041684427524 5.6071758822838547 6.1191815570923289 N
  atom 2.5715773160429047 7.0355416222764369 1.2284744835441381 N
  atom 2.8046195534499478 6.3892957984432348 2.4641420355105854 C
  atom 3.2798595342832901 5.2440158628673217 2.4165315405176138 O
  atom 2.4602199817306039 7.0039880032640607 3.6323272046989556 N
  atom 3.1559666174572012 0.7087854532250724 3.6011786183326024 C
  atom 2.8761221000740238 1.3023742933669720 4.7807452522722107 N
  atom 2.8528398888995881 1.3508310053531054 2.3512401805880350 C
  atom 3.2182934922120574 0.7226529505666832 1.1932209642747909 C
  atom 2.8867190291028093 6.5784221055489613 0.3477714381819631 H
  atom 2.3961163285339167 2.2003718505860652 4.7842809154459225 H
  atom 3.0493209486242381 0.8415859589928089 5.6637466897849125 H
  atom 2.3400346445946960 2.3114806465101969 2.3487455572070739 H
  atom 3.0407604075970545 1.1587127776788808 0.1912131050153965 H
  atom -1.1731045659633252 7.0633979475500226 6.0813217918286391 N
  atom -0.9268952521331340 6.4132092513473049 4.8482229697671206 C
  atom -0.4289733406181634 5.2795069285123306 4.9111291041715504 O
  atom 6.1146416406287978 7.0169562101938352 3.6748982443493405 N
  atom 6.7914965825168503 0.7137086943952362 3.6907616888788404 C
  atom 6.5110225648335494 1.3026569632121388 2.5087519762055015 N
  atom 6.4653600371795141 1.3502959754393176 4.9381228356591667 C
  atom 6.8405955630711750 0.7382274841174564 6.1025100768476586 C
  atom -0.8464796012186147 6.6097664362964936 6.9591326081481988 H
  atom 6.0684721897818283 2.2220489106366075 2.5084608780466220 H
  atom 6.7445846495368311 0.8747442884344894 1.6239883303049294 H
  atom 5.9296243474302939 2.2996809361789015 4.9346526884708171 H
  atom 6.6406585837178591 1.1772950219624674 7.0994126834627105 H
  atom -0.4996762531159716 5.7796391337145883 1.1689205540203080 N
  atom -0.7591809300158151 6.2489660628127766 9.7543288788617986 C
  atom -0.4065143969437067 5.6413386842328750 8.5858530367542301 N
  atom 0.1837585171469158 4.4090791381407328 8.6230117056099544 C
  atom 0.4318326217999039 3.8014210549854694 7.4431375211339565 N
  atom 0.5092921164188203 3.9379044598461728 0.0493979106429791 C
  atom 0.1357318732077168 4.5634938979998880 1.2069480280094134 C
  atom -0.8101834721109181 6.2477279414455014 2.0505588625018185 H
  atom 0.9346357052546588 2.9142775287708251 7.4392354109856971 H
  atom 0.2646127302952184 4.2697107091700310 6.5615250418991202 H
  atom 1.0377075655894921 2.9854346023717606 0.0522519590269324 H
  atom 0.3195668939960375 4.1313301150748289 2.2091210229765710 H
  atom 5.2918658815440320 1.2781384794983970 8.9643605432294979 O
  atom 5.9832764038478432 0.6743956922373389 9.2291481525731367 H
  atom 4.6783980256934132 0.7991787237547916 8.4069823119735787 H
  atom 1.7013744867725411 3.8515254635665248 4.0929058778584988 O
  atom 1.0088952094786572 4.4687956830932327 4.3460188687146148 H
  atom 2.3234375804400549 4.3149649382733113 3.5249330604602447 H
  atom 5.3964442228796754 3.8186896778234622 3.2754261572850014 O
  atom 4.7031502674354266 4.4192218143518573 2.9970623860027805 H
  atom 6.0169562671398591 4.3071634180478844 3.8291574566918971 H
  atom 1.5998970335299514 1.2898653029797189 8.1506527101340502 O
  atom 2.2874325955067025 0.6916622314241029 7.8746262689876954 H
  atom 0.9800238653811977 0.7998427246460825 8.6964795055716664 H
  
  -----------------------------------------------------------------------
  Completed first pass over input file geometry.in .
  -----------------------------------------------------------------------
  

  Basic array size parameters:
  | Number of species                 :        4
  | Number of atoms                   :       64
  | Number of lattice vectors         :        3
  | Max. basis fn. angular momentum   :        2
  | Max. atomic/ionic basis occupied n:        2
  | Max. number of basis fn. types    :        2
  | Max. radial fns per species/type  :        3
  | Max. logarithmic grid size        :     1301
  | Max. radial integration grid size :       36
  | Max. angular integration grid size:      302
  | Max. angular grid division number :        8
  | Radial grid for Hartree potential :     1301
  | Number of spin channels           :        1

------------------------------------------------------------
          Reading file control.in.
------------------------------------------------------------
  XC: Using PBE gradient-corrected functionals.
  Requested output level: MD_light
  Scalar relativistic treatment of kinetic energy: on-site free-atom approximation to ZORA.
  Spin treatment: No spin polarisation.
  Found k-point grid:         3         3         2
  S.C.F. convergence parameters will be adjusted in iteration number     3 of each new s.c.f. cycle.
  Maximum number of s.-c. iterations  :   100
  Mulliken analysis of all k points in band will be performed

  Plot band    1
  | begin  0.000000 -0.500000  0.000000
  | end    0.000000  0.000000  0.000000
  | number of points:    8
  Mulliken analysis of all k points in band will be performed

  Plot band    2
  | begin  0.000000  0.000000  0.000000
  | end    0.500000  0.000000  0.000000
  | number of points:    9
  Mulliken analysis of all k points in band will be performed

  Plot band    3
  | begin  0.500000 -0.500000  0.000000
  | end    0.000000  0.000000  0.000000
  | number of points:   11
  Mulliken analysis of all k points in band will be performed

  Plot band    4
  | begin  0.000000  0.000000  0.000000
  | end   -0.500000  0.000000  0.500000
  | number of points:   11
  Mulliken analysis of all k points in band will be performed

  Plot band    5
  | begin -0.500000 -0.500000  0.500000
  | end    0.000000  0.000000  0.000000
  | number of points:   14
  Mulliken analysis of all k points in band will be performed

  Plot band    6
  | begin  0.000000  0.000000  0.000000
  | end    0.000000  0.000000  0.500000
  | number of points:    6
  Mulliken analysis of all k points in band will be performed

  Plot band    7
  | begin  0.000000 -0.500000  0.500000
  | end    0.000000  0.000000  0.000000
  | number of points:   10

  Reading configuration options for species O                   .
  | Found nuclear charge :   8.0000
  | Found atomic mass :    15.999400000000000      amu
  | Found l_max for Hartree potential  :   4
  | Found cutoff potl. onset [A], width [A], scale factor :    3.50000    1.50000    1.00000
  | Threshold for basis-dependent cutoff potential is   0.100000E-03
  | Found data for basic radial integration grid :    36 points, outermost radius =    5.000 A
  | Found multiplier for basic radial grid :   1
  | Found angular grid specification: user-specified.
  | Specified grid contains     5 separate shells.
  | Check grid settings after all constraints further below.
  | Found free-atom valence shell :  2 s   2.000
  | Found free-atom valence shell :  2 p   4.000
  | No ionic wave fns used. Skipping ion_occ.
  | No ionic wave fns used. Skipping ion_occ.
  | Found hydrogenic basis function :  2 p   1.800
  | Found hydrogenic basis function :  3 d   7.600
  | Found hydrogenic basis function :  3 s   6.400
  Species O                   : Missing cutoff potential type.
  Defaulting to exp(1/x)/(1-x)^2 type cutoff potential.
  Species O : No 'logarithmic' tag. Using default grid for free atom:
  | Default logarithmic grid data [bohr] : 0.1000E-03 0.1000E+03 0.1012E+01
  Species O : On-site basis accuracy parameter (for Gram-Schmidt orthonormalisation) not specified.
  Using default value basis_acc =  0.1000000E-03.
  Species O                   : Using default innermost maximum threshold i_radial=  2 for radial functions.
  Species O                   : Default cutoff onset for free atom density etc. : 0.35000000E+01 AA.
  Species O                   : Basic radial grid will be enhanced according to radial_multiplier =   1, to contain    36 grid points.

  Reading configuration options for species C                   .
  | Found nuclear charge :   6.0000
  | Found atomic mass :    12.010700000000000      amu
  | Found l_max for Hartree potential  :   4
  | Found cutoff potl. onset [A], width [A], scale factor :    3.50000    1.50000    1.00000
  | Threshold for basis-dependent cutoff potential is   0.100000E-03
  | Found data for basic radial integration grid :    34 points, outermost radius =    5.000 A
  | Found multiplier for basic radial grid :   1
  | Found angular grid specification: user-specified.
  | Specified grid contains     5 separate shells.
  | Check grid settings after all constraints further below.
  | Found free-atom valence shell :  2 s   2.000
  | Found free-atom valence shell :  2 p   2.000
  | No ionic wave fns used. Skipping ion_occ.
  | No ionic wave fns used. Skipping ion_occ.
  | Found hydrogenic basis function :  2 p   1.700
  | Found hydrogenic basis function :  3 d   6.000
  | Found hydrogenic basis function :  2 s   4.900
  Species C                   : Missing cutoff potential type.
  Defaulting to exp(1/x)/(1-x)^2 type cutoff potential.
  Species C : No 'logarithmic' tag. Using default grid for free atom:
  | Default logarithmic grid data [bohr] : 0.1000E-03 0.1000E+03 0.1012E+01
  Species C : On-site basis accuracy parameter (for Gram-Schmidt orthonormalisation) not specified.
  Using default value basis_acc =  0.1000000E-03.
  Species C                   : Using default innermost maximum threshold i_radial=  2 for radial functions.
  Species C                   : Default cutoff onset for free atom density etc. : 0.35000000E+01 AA.
  Species C                   : Basic radial grid will be enhanced according to radial_multiplier =   1, to contain    34 grid points.

  Reading configuration options for species N                   .
  | Found nuclear charge :   7.0000
  | Found atomic mass :    14.006700000000000      amu
  | Found l_max for Hartree potential  :   4
  | Found cutoff potl. onset [A], width [A], scale factor :    3.50000    1.50000    1.00000
  | Threshold for basis-dependent cutoff potential is   0.100000E-03
  | Found data for basic radial integration grid :    35 points, outermost radius =    5.000 A
  | Found multiplier for basic radial grid :   1
  | Found angular grid specification: user-specified.
  | Specified grid contains     5 separate shells.
  | Check grid settings after all constraints further below.
  | Found free-atom valence shell :  2 s   2.000
  | Found free-atom valence shell :  2 p   3.000
  | No ionic wave fns used. Skipping ion_occ.
  | No ionic wave fns used. Skipping ion_occ.
  | Found hydrogenic basis function :  2 p   1.800
  | Found hydrogenic basis function :  3 d   6.800
  | Found hydrogenic basis function :  3 s   5.800
  Species N                   : Missing cutoff potential type.
  Defaulting to exp(1/x)/(1-x)^2 type cutoff potential.
  Species N : No 'logarithmic' tag. Using default grid for free atom:
  | Default logarithmic grid data [bohr] : 0.1000E-03 0.1000E+03 0.1012E+01
  Species N : On-site basis accuracy parameter (for Gram-Schmidt orthonormalisation) not specified.
  Using default value basis_acc =  0.1000000E-03.
  Species N                   : Using default innermost maximum threshold i_radial=  2 for radial functions.
  Species N                   : Default cutoff onset for free atom density etc. : 0.35000000E+01 AA.
  Species N                   : Basic radial grid will be enhanced according to radial_multiplier =   1, to contain    35 grid points.

  Reading configuration options for species H                   .
  | Found nuclear charge :   1.0000
  | Found atomic mass :    1.0079400000000001      amu
  | Found l_max for Hartree potential  :   4
  | Found cutoff potl. onset [A], width [A], scale factor :    3.50000    1.50000    1.00000
  | Threshold for basis-dependent cutoff potential is   0.100000E-03
  | Found data for basic radial integration grid :    24 points, outermost radius =    5.000 A
  | Found multiplier for basic radial grid :   1
  | Found angular grid specification: user-specified.
  | Specified grid contains     5 separate shells.
  | Check grid settings after all constraints further below.
  | Found free-atom valence shell :  1 s   1.000
  | No ionic wave fns used. Skipping ion_occ.
  | Found hydrogenic basis function :  2 s   2.100
  | Found hydrogenic basis function :  2 p   3.500
  Species H                   : Missing cutoff potential type.
  Defaulting to exp(1/x)/(1-x)^2 type cutoff potential.
  Species H : No 'logarithmic' tag. Using default grid for free atom:
  | Default logarithmic grid data [bohr] : 0.1000E-03 0.1000E+03 0.1012E+01
  Species H : On-site basis accuracy parameter (for Gram-Schmidt orthonormalisation) not specified.
  Using default value basis_acc =  0.1000000E-03.
  Species H                   : Using default innermost maximum threshold i_radial=  2 for radial functions.
  Species H                   : Default cutoff onset for free atom density etc. : 0.35000000E+01 AA.
  Species H                   : Basic radial grid will be enhanced according to radial_multiplier =   1, to contain    24 grid points.

  Finished reading input file 'control.in'.

------------------------------------------------------------


------------------------------------------------------------
          Reading geometry description geometry.in.
------------------------------------------------------------
  | The smallest distance between any two atoms is         0.95223036 AA.
  | The first atom of this pair is atom number                     62 .
  | The second atom of this pair is atom number                    63 .
  | Wigner-Seitz cell of the first atom image           0     0     0 .
  | (The Wigner-Seitz cell of the second atom is 0 0 0  by definition.)

  Symmetry information by spglib:
  | Precision set to  0.1E-04
  | Number of Operations  : 1
  | Space group           : 1
  | International         : P1
  | Schoenflies           : C1^1
  Input structure read successfully.
  The structure contains       64 atoms,  and a total of        272.000 electrons.

  Input geometry:
  | Unit cell:
  |        7.38979000        0.00000000        0.00000000
  |       -1.28184744        7.53012520        0.00000000
  |       -0.00477142       -0.16038466        9.82550993
  | Atomic structure:
  |       Atom                x [A]            y [A]            z [A]
  |    1: Species O             0.02769952       -0.14512137        9.79263292
  |    2: Species C             2.91892421        6.25897532        7.35031642
  |    3: Species O             2.44049286        7.40156223        7.29691214
  |    4: Species N             3.25315268        5.64519223        8.52351608
  |    5: Species C             3.84478050        4.41189298        8.50436743
  |    6: Species N             4.12469958        3.82150348        9.68770162
  |    7: Species C             4.15367172        3.76518419        7.25854762
  |    8: Species C             3.78840283        4.38590973        6.09508368
  |    9: Species H             2.85942482        6.07380510        5.23494476
  |   10: Species H             4.60636948        2.92858645        9.69704702
  |   11: Species H             3.90519432        4.42435038        0.74450619
  |   12: Species H             4.67110003        2.80714470        7.26406095
  |   13: Species H             3.97776830        3.94379653        5.09690799
  |   14: Species N             3.16250417        5.60717588        6.11918156
  |   15: Species N             2.57157732        7.03554162        1.22847448
  |   16: Species C             2.80461955        6.38929580        2.46414204
  |   17: Species O             3.27985953        5.24401586        2.41653154
  |   18: Species N             2.46021998        7.00398800        3.63232720
  |   19: Species C             3.15596662        0.70878545        3.60117862
  |   20: Species N             2.87612210        1.30237429        4.78074525
  |   21: Species C             2.85283989        1.35083101        2.35124018
  |   22: Species C             3.21829349        0.72265295        1.19322096
  |   23: Species H             2.88671903        6.57842211        0.34777144
  |   24: Species H             2.39611633        2.20037185        4.78428092
  |   25: Species H             3.04932095        0.84158596        5.66374669
  |   26: Species H             2.34003464        2.31148065        2.34874556
  |   27: Species H             3.04076041        1.15871278        0.19121311
  |   28: Species N            -1.17310457        7.06339795        6.08132179
  |   29: Species C            -0.92689525        6.41320925        4.84822297
  |   30: Species O            -0.42897334        5.27950693        4.91112910
  |   31: Species N             6.11464164        7.01695621        3.67489824
  |   32: Species C             6.79149658        0.71370869        3.69076169
  |   33: Species N             6.51102256        1.30265696        2.50875198
  |   34: Species C             6.46536004        1.35029598        4.93812284
  |   35: Species C             6.84059556        0.73822748        6.10251008
  |   36: Species H            -0.84647960        6.60976644        6.95913261
  |   37: Species H             6.06847219        2.22204891        2.50846088
  |   38: Species H             6.74458465        0.87474429        1.62398833
  |   39: Species H             5.92962435        2.29968094        4.93465269
  |   40: Species H             6.64065858        1.17729502        7.09941268
  |   41: Species N            -0.49967625        5.77963913        1.16892055
  |   42: Species C            -0.75918093        6.24896606        9.75432888
  |   43: Species N            -0.40651440        5.64133868        8.58585304
  |   44: Species C             0.18375852        4.40907914        8.62301171
  |   45: Species N             0.43183262        3.80142105        7.44313752
  |   46: Species C             0.50929212        3.93790446        0.04939791
  |   47: Species C             0.13573187        4.56349390        1.20694803
  |   48: Species H            -0.81018347        6.24772794        2.05055886
  |   49: Species H             0.93463571        2.91427753        7.43923541
  |   50: Species H             0.26461273        4.26971071        6.56152504
  |   51: Species H             1.03770757        2.98543460        0.05225196
  |   52: Species H             0.31956689        4.13133012        2.20912102
  |   53: Species O             5.29186588        1.27813848        8.96436054
  |   54: Species H             5.98327640        0.67439569        9.22914815
  |   55: Species H             4.67839803        0.79917872        8.40698231
  |   56: Species O             1.70137449        3.85152546        4.09290588
  |   57: Species H             1.00889521        4.46879568        4.34601887
  |   58: Species H             2.32343758        4.31496494        3.52493306
  |   59: Species O             5.39644422        3.81868968        3.27542616
  |   60: Species H             4.70315027        4.41922181        2.99706239
  |   61: Species H             6.01695627        4.30716342        3.82915746
  |   62: Species O             1.59989703        1.28986530        8.15065271
  |   63: Species H             2.28743260        0.69166223        7.87462627
  |   64: Species H             0.98002387        0.79984272        8.69647951

  Lattice parameters for 3D lattice (in Angstroms) :     7.389790    7.638450    9.826820
  Angle(s) between unit vectors (in degrees)       :    90.917240   90.027820   99.660810


  Quantities derived from the lattice vectors:
  | Reciprocal lattice vector 1:  0.850252  0.144738  0.002775
  | Reciprocal lattice vector 2:  0.000000  0.834406  0.013620
  | Reciprocal lattice vector 3: -0.000000  0.000000  0.639477
  | Unit cell volume                               :   0.546751E+03  A^3


  Finished reading input file 'control.in'.


------------------------------------------------------------
          Reading geometry description geometry.in.
------------------------------------------------------------

  Consistency checks for the contents of control.in are next.

  MPI_IN_PLACE appears to work with this MPI implementation.
  | Keeping use_mpi_in_place .true. (see manual).
  Target number of points in a grid batch is not set. Defaulting to  100
  Method for grid partitioning is not set. Defaulting to parallel hash+maxmin partitioning.
  Batch size limit is not set. Defaulting to    200
  By default, will store active basis functions for each batch.
  If in need of memory, prune_basis_once .false. can be used to disable this option.
  communication_type for Hartree potential was not specified.
  Defaulting to calc_hartree .
  Defaulting to Pulay charge density mixer.
  Pulay mixer: Number of relevant iterations not set.
  Defaulting to    8 iterations.
  Pulay mixer: Number of initial linear mixing iterations not set.
  Defaulting to    0 iterations.
  Work space size for distributed Hartree potential not set.
  Defaulting to   0.200000E+03 MB.
  Mixing parameter for charge density mixing has not been set.
  Using default: charge_mix_param =     0.0500.
  The mixing parameter will be adjusted in iteration number     3 of each s.c.f. cycle (i.e., each geometry step).
  Algorithm-dependent basis array size parameters:
  | n_max_pulay                         :        8
  Presetting      1001 iterations before the initial mixing cycle
  is restarted anyway using the sc_init_iter criterion / keyword.
  Presetting a factor      1.000 between actual scf density residual
  and density convergence criterion sc_accuracy_rho below which sc_init_iter
  takes no effect.
 * No s.c.f. convergence criteria (sc_accuracy_*) were provided in control.in.
 * The run will proceed with a reasonable default guess, but please check whether.
 * the s.c.f. cycles seem to take too much or too little time.
  Calculation of forces was not defined in control.in. No forces will be calculated.
  Geometry relaxation not requested: no relaxation will be performed.
 * Notice: The s.c.f. convergence criterion sc_accuracy_rho was not provided.
 * We used to stop in this case, and ask the user to provide reasonable
 * scf convergence criteria. However, this led some users to employ criteria
 * that led to extremely long run times, e.g., for simple relaxation.
 * We now preset a default value for sc_accuracy_rho if it is not set.
 * You may still wish to check if this setting is too tight or too loose for your needs.
 * Based on n_atoms, FHI-aims chose sc_accuracy_rho =  0.106667E-04 .
  No accuracy limit for integral partition fn. given. Defaulting to  0.1000E-14.
  No threshold value for u(r) in integrations given. Defaulting to  0.1000E-05.
  No occupation type (smearing scheme) given. Defaulting to Gaussian broadening, width =  0.1000E-01 eV.
  The width will be adjusted in iteration number     3 of each s.c.f. cycle (i.e., each geometry step).
  S.C.F. convergence parameters will be adjusted in iteration number     3 of the first full s.c.f. cycle only.
  No accuracy for occupation numbers given. Defaulting to  0.1000E-12.
  No threshold value for occupation numbers given. Defaulting to  0.0000E+00.
  No accuracy for fermi level given. Defaulting to  0.1000E-19.
  Maximum # of iterations to find E_F not set. Defaulting to  200.
  Preferred method for the eigenvalue solver ('KS_method') not specified in 'control.in'.
  Defaulting to serial version, LAPACK (via ELSI), since more k-points than CPUs available.
  Will not use alltoall communication since running on < 1024 CPUs.
  Threshold for basis singularities not set.
  Default threshold for basis singularities:  0.1000E-04
  partition_type (choice of integration weights) for integrals was not specified.
  | Using a version of the partition function of Stratmann and coworkers ('stratmann_sparse').
  | At each grid point, the set of atoms used to build the partition table is smoothly restricted to
  | only those atoms whose free-atom density would be non-zero at that grid point.
  Partitioning for Hartree potential was not defined. Using partition_type for integrals.
  | Adjusted default value of keyword multip_moments_threshold to:       0.10000000E-11
  | This value may affect high angular momentum components of the Hartree potential in periodic systems.
  Angular momentum expansion for Kerker preconditioner not set explicitly.
  | Using default value of   0
  No explicit requirement for turning off preconditioner.
  | By default, it will be turned off when the charge convergence reaches
  | sc_accuracy_rho  =   0.106667E-04
  No special mixing parameter while Kerker preconditioner is on.
  Using default: charge_mix_param =     0.0500.
  No q(lm)/r^(l+1) cutoff set for long-range Hartree potential.
  | Using default value of  0.100000E-09 .
  | Verify using the multipole_threshold keyword.
  Defaulting to new monopole extrapolation.
  Density update method: automatic selection selected.
  Using density matrix based charge density update.
  Using density matrix based charge density update.
  Using packed matrix style: index .
  Defaulting to use time-reversal symmetry for k-point grid.
  Charge integration errors on the 3D integration grid will be compensated
  by explicit normalization and distribution of residual charges.
  Use the "compensate_multipole_errors" flag to change this behaviour.
  Set 'collect_eigenvectors' to be '.true.' for all serial calculations. This is mandatory.
  Set 'collect_eigenvectors' to be '.true.' for KS_method lapack_fast and serial.

  Consistency checks for the contents of geometry.in are next.


  Range separation radius for Ewald summation (hartree_convergence_parameter):      2.78680217 bohr.
  Number of empty states per atom not set in control.in - providing a guess from actual geometry.
  | Total number of empty states used during s.c.f. cycle:      150
  If you use a very high smearing, use empty_states (per atom!) in control.in to increase this value.

  Structure-dependent array size parameters: 
  | Maximum number of distinct radial functions  :       21
  | Maximum number of basis functions            :      644
  | Number of Kohn-Sham states (occupied + empty):      286
------------------------------------------------------------

------------------------------------------------------------
          Preparing all fixed parts of the calculation.
------------------------------------------------------------
  Determining machine precision:
     2.2250738585072014E-308
  Setting up grids for atomic and cluster calculations.

  Creating wave function, potential, and density for free atoms.

  Species: O

  List of occupied orbitals and eigenvalues:
    n    l              occ      energy [Ha]    energy [eV]
    1    0           2.0000       -18.926989      -515.0296
    2    0           2.0000        -0.880247       -23.9527
    2    1           4.0000        -0.331514        -9.0210


  Species: C

  List of occupied orbitals and eigenvalues:
    n    l              occ      energy [Ha]    energy [eV]
    1    0           2.0000       -10.046810      -273.3876
    2    0           2.0000        -0.503128       -13.6908
    2    1           2.0000        -0.191849        -5.2205


  Species: N

  List of occupied orbitals and eigenvalues:
    n    l              occ      energy [Ha]    energy [eV]
    1    0           2.0000       -14.143973      -384.8771
    2    0           2.0000        -0.682008       -18.5584
    2    1           3.0000        -0.259605        -7.0642


  Species: H

  List of occupied orbitals and eigenvalues:
    n    l              occ      energy [Ha]    energy [eV]
    1    0           1.0000        -0.237593        -6.4652


  Adding cutoff potential to free-atom effective potential.
  Creating fixed part of basis set: Ionic, confined, hydrogenic.

  O                    hydrogenic:

  List of hydrogenic basis orbitals: 
    n    l      effective z      eigenvalue [eV]  inner max. [A]     outer max. [A]     outer radius [A]   
    2    1         1.800000       -10.9749           1.164242           1.164242           4.578029
    3    2         7.600000       -87.3180           0.624125           0.624125           3.251020
    3    0         6.400000       -61.9207           0.061167           1.081902           4.001998


  C                    hydrogenic:

  List of hydrogenic basis orbitals: 
    n    l      effective z      eigenvalue [eV]  inner max. [A]     outer max. [A]     outer radius [A]   
    2    1         1.700000        -9.7616           1.230570           1.230570           4.607917
    3    2         6.000000       -54.4224           0.792453           0.792453           3.883070
    2    0         4.900000       -81.6679           0.082559           0.562749           3.078220


  N                    hydrogenic:

  List of hydrogenic basis orbitals: 
    n    l      effective z      eigenvalue [eV]  inner max. [A]     outer max. [A]     outer radius [A]   
    2    1         1.800000       -10.9749           1.177451           1.177451           4.573712
    3    2         6.800000       -69.9026           0.704619           0.704619           3.538137
    3    0         5.800000       -50.8545           0.067388           1.191934           4.250239


  H                    hydrogenic:

  List of hydrogenic basis orbitals: 
    n    l      effective z      eigenvalue [eV]  inner max. [A]     outer max. [A]     outer radius [A]   
    2    0         2.100000       -14.9728           0.193243           1.317208           4.583499
    2    1         3.500000       -41.6669           0.602369           0.602369           3.723403

  Creating atomic-like basis functions for current effective potential.

  Species O                   :

  List of atomic basis orbitals and eigenvalues:
    n    l      energy [Ha]    energy [eV]    outer radius [A]
    1    0       -18.926989      -515.0296       1.415765
    2    0        -0.880247       -23.9527       4.413171
    2    1        -0.331514        -9.0210       4.522403


  Species C                   :

  List of atomic basis orbitals and eigenvalues:
    n    l      energy [Ha]    energy [eV]    outer radius [A]
    1    0       -10.046810      -273.3876       1.934409
    2    0        -0.503128       -13.6908       4.496620
    2    1        -0.191849        -5.2205       4.551928


  Species N                   :

  List of atomic basis orbitals and eigenvalues:
    n    l      energy [Ha]    energy [eV]    outer radius [A]
    1    0       -14.143973      -384.8771       1.637919
    2    0        -0.682008       -18.5584       4.463241
    2    1        -0.259605        -7.0642       4.518138


  Species H                   :

  List of atomic basis orbitals and eigenvalues:
    n    l      energy [Ha]    energy [eV]    outer radius [A]
    1    0        -0.237593        -6.4652       4.527807

  Assembling full basis from fixed parts.
  | Species O :   atomic orbital   1 s accepted.
  | Species O :    hydro orbital   3 s accepted.
  | Species O :   atomic orbital   2 s accepted.
  | Species O :   atomic orbital   2 p accepted.
  | Species O :    hydro orbital   2 p accepted.
  | Species O :    hydro orbital   3 d accepted.
  | Species C :   atomic orbital   1 s accepted.
  | Species C :    hydro orbital   2 s accepted.
  | Species C :   atomic orbital   2 s accepted.
  | Species C :   atomic orbital   2 p accepted.
  | Species C :    hydro orbital   2 p accepted.
  | Species C :    hydro orbital   3 d accepted.
  | Species N :   atomic orbital   1 s accepted.
  | Species N :    hydro orbital   3 s accepted.
  | Species N :   atomic orbital   2 s accepted.
  | Species N :   atomic orbital   2 p accepted.
  | Species N :    hydro orbital   2 p accepted.
  | Species N :    hydro orbital   3 d accepted.
  | Species H :   atomic orbital   1 s accepted.
  | Species H :    hydro orbital   2 s accepted.
  | Species H :    hydro orbital   2 p accepted.

  Basis size parameters after reduction:
  | Total number of radial functions:       21
  | Total number of basis functions :      644

  Per-task memory consumption for arrays in subroutine allocate_ext:
  |           7.014248MB.
  Testing on-site integration grid accuracy.
  |  Species  Function  <phi|h_atom|phi> (log., in eV)  <phi|h_atom|phi> (rad., in eV)
           1        1               -515.0295626295               -515.0294562738
           1        2                 15.1698434419                 15.1699322204
           1        3                -21.6038822678                -21.6039118105
           1        4                 -9.0211123393                 -9.0212703513
           1        5                  8.3047696391                  8.2854840999
           1        6                 45.8428042125                 45.8427461222
           2        7               -273.3876219248               -273.3875919908
           2        8                -10.7204647119                -10.7200987605
           2        9                 17.5782951162                 17.5752355731
           2       10                 -5.2222267983                 -5.2237454471
           2       11                  8.6866956284                  8.6634852736
           2       12                 27.4984676161                 27.4985577266
           3       13               -384.8770852097               -384.8770238657
           3       14                 12.5754985572                 12.5755902269
           3       15                -15.7673946340                -15.7673131149
           3       16                 -7.0647024644                 -7.0651952861
           3       17                  8.8117910312                  8.7928686445
           3       18                 35.9641313274                 35.9643080893
           4       19                 -6.4664147733                 -6.4652229287
           4       20                 13.7099062243                 13.7158503352
           4       21                 25.2661739479                 25.2663166526

  Preparing densities etc. for the partition functions (integrals / Hartree potential).

  Preparations completed.
  max(cpu_time)          :      0.140 s.
  Wall clock time (cpu1) :      0.153 s.
------------------------------------------------------------

------------------------------------------------------------
          Begin self-consistency loop: Initialization.

          Date     :  20210228, Time     :  121944.918
------------------------------------------------------------

  Initializing index lists of integration centers etc. from given atomic structure:
  Mapping all atomic coordinates to central unit cell.

  Initializing the k-points
  Using symmetry for reducing the k-points
  | k-points reduced from:       18 to       10
  | Number of k-points                             :        10
  The eigenvectors in the calculations are COMPLEX.
  | K-points in task   0:         5
  | K-points in task   1:         5
  | Number of basis functions in the Hamiltonian integrals :      4796
  | Number of basis functions in a single unit cell        :       644
  | Number of centers in hartree potential         :      2285
  | Number of centers in hartree multipole         :      1778
  | Number of centers in electron density summation:      1359
  | Number of centers in basis integrals           :      1441
  | Number of centers in integrals                 :       632
  | Number of centers in hamiltonian               :      1364
  | Consuming          7 KiB for k_phase.
  | Number of super-cells (origin) [n_cells]                     :         245
  | Number of super-cells (after PM_index) [n_cells]             :          48
  | Number of super-cells in hamiltonian [n_cells_in_hamiltonian]:          48
  | Size of matrix packed + index [n_hamiltonian_matrix_size] :      947582
  | Estimated reciprocal-space cutoff momentum G_max:         3.40304703 bohr^-1 .
  | Reciprocal lattice points for long-range Hartree potential:    2458
  Partitioning the integration grid into batches with parallel hashing+maxmin method.
  | Number of batches:     4096
  | Maximal batch size:      89
  | Minimal batch size:      83
  | Average batch size:      85.959
  | Standard deviation of batch sizes:       1.451

  Integration load balanced across     2 MPI tasks.
  Work distribution over tasks is as follows:
  Task     0 has     176088 integration points.
  Task     1 has     176000 integration points.
  Initializing partition tables, free-atom densities, potentials, etc. across the integration grid (initialize_grid_storage).
  | initialize_grid_storage: Actual outermost partition radius vs. multipole_radius_free
  | (-- VB: in principle, multipole_radius_free should be larger, hence this output)
  | Species        1: Confinement radius =              4.999999999999999 AA, multipole_radius_free =              5.048384829883283 AA.
  | Species        1: outer_partition_radius set to              5.048384829883283 AA .
  | Species        2: Confinement radius =              4.999999999999999 AA, multipole_radius_free =              5.019602836301480 AA.
  | Species        2: outer_partition_radius set to              5.019602836301480 AA .
  | Species        3: Confinement radius =              4.999999999999999 AA, multipole_radius_free =              5.043624274424571 AA.
  | Species        3: outer_partition_radius set to              5.043624274424571 AA .
  | Species        4: Confinement radius =              4.999999999999999 AA, multipole_radius_free =              5.054417573612229 AA.
  | Species        4: outer_partition_radius set to              5.054417573612229 AA .
  | The sparse table of interatomic distances needs       5328.22 kbyte instead of     16611.85 kbyte of memory.
  | Net number of integration points:   352088
  | of which are non-zero points    :   277830
  | Numerical average free-atom electrostatic potential    :     -8.99828790 eV
  Renormalizing the initial density to the exact electron count on the 3D integration grid.
  | Initial density: Formal number of electrons (from input files) :     272.0000000000
  | Integrated number of electrons on 3D grid     :     272.0034461278
  | Charge integration error                      :       0.0034461278
  | Normalization factor for density and gradient :       0.9999873306
  Renormalizing the free-atom superposition density to the exact electron count on the 3D integration grid.
  | Formal number of electrons (from input files) :     272.0000000000
  | Integrated number of electrons on 3D grid     :     272.0034461278
  | Charge integration error                      :       0.0034461278
  | Normalization factor for density and gradient :       0.9999873306
  Obtaining max. number of non-zero basis functions in each batch (get_n_compute_maxes).
  | Maximal number of non-zero basis functions:      562 in task     0
  | Maximal number of non-zero basis functions:      547 in task     1
  Allocating       14.052 MB for KS_eigenvector_complex
  Integrating Hamiltonian matrix: batch-based integration.
  Time summed over all CPUs for integration: real work       18.494 s, elapsed       18.547 s
  Integrating overlap matrix.
  Time summed over all CPUs for integration: real work       12.969 s, elapsed       12.998 s
  Decreasing sparse matrix size:
  | Tolerance:  0.1000E-12
  Hamiltonian matrix
  | Array has   845143 nonzero elements out of   947582 elements
  | Sparsity factor is 0.108
  Overlap matrix
  | Array has   786235 nonzero elements out of   947582 elements
  | Sparsity factor is 0.170
  New size of hamiltonian matrix:      845146

  Updating Kohn-Sham eigenvalues and eigenvectors using ELSI and the (modified) LAPACK eigensolver.

  Obtaining occupation numbers and chemical potential using ELSI.
  | Chemical potential (Fermi level):    -9.65825968 eV
  Writing Kohn-Sham eigenvalues.
  K-point:       1 at    0.000000    0.000000    0.000000 (in units of recip. lattice)

  State    Occupation    Eigenvalue [Ha]    Eigenvalue [eV]
      1       2.00000         -19.041160         -518.13634
      2       2.00000         -19.041018         -518.13247
      3       2.00000         -19.039133         -518.08117
      4       2.00000         -19.038922         -518.07542
      5       2.00000         -19.005580         -517.16815
      6       2.00000         -19.005390         -517.16296
      7       2.00000         -19.005309         -517.16077
      8       2.00000         -19.005218         -517.15829
      9       2.00000         -14.281274         -388.61324
     10       2.00000         -14.281231         -388.61208
     11       2.00000         -14.280946         -388.60431
     12       2.00000         -14.280713         -388.59798
     13       2.00000         -14.265322         -388.17916
     14       2.00000         -14.265159         -388.17472
     15       2.00000         -14.264849         -388.16628
     16       2.00000         -14.264760         -388.16386
     17       2.00000         -14.234540         -387.34154
     18       2.00000         -14.234479         -387.33987
     19       2.00000         -14.234411         -387.33803
     20       2.00000         -14.234363         -387.33671
     21       2.00000         -10.161019         -276.49540
     22       2.00000         -10.160880         -276.49161
     23       2.00000         -10.160772         -276.48867
     24       2.00000         -10.160724         -276.48738
     25       2.00000         -10.154776         -276.32551
     26       2.00000         -10.154776         -276.32550
     27       2.00000         -10.154634         -276.32165
     28       2.00000         -10.154592         -276.32051
     29       2.00000         -10.145095         -276.06207
     30       2.00000         -10.145015         -276.05990
     31       2.00000         -10.144911         -276.05709
     32       2.00000         -10.144797         -276.05398
     33       2.00000         -10.136899         -275.83907
     34       2.00000         -10.136651         -275.83230
     35       2.00000         -10.136562         -275.82987
     36       2.00000         -10.136535         -275.82914
     37       2.00000          -1.138694          -30.98544
     38       2.00000          -1.136718          -30.93167
     39       2.00000          -1.134378          -30.86798
     40       2.00000          -1.133746          -30.85081
     41       2.00000          -1.110485          -30.21785
     42       2.00000          -1.108373          -30.16036
     43       2.00000          -1.106878          -30.11967
     44       2.00000          -1.105144          -30.07250
     45       2.00000          -1.048786          -28.53893
     46       2.00000          -1.048501          -28.53115
     47       2.00000          -1.046070          -28.46501
     48       2.00000          -1.045853          -28.45910
     49       2.00000          -1.016120          -27.65002
     50       2.00000          -1.014190          -27.59751
     51       2.00000          -1.013751          -27.58557
     52       2.00000          -1.013481          -27.57821
     53       2.00000          -0.958343          -26.07784
     54       2.00000          -0.958271          -26.07588
     55       2.00000          -0.955538          -26.00152
     56       2.00000          -0.954981          -25.98635
     57       2.00000          -0.874924          -23.80790
     58       2.00000          -0.874651          -23.80048
     59       2.00000          -0.874285          -23.79052
     60       2.00000          -0.873212          -23.76130
     61       2.00000          -0.759138          -20.65720
     62       2.00000          -0.758707          -20.64548
     63       2.00000          -0.755688          -20.56332
     64       2.00000          -0.755122          -20.54792
     65       2.00000          -0.739448          -20.12141
     66       2.00000          -0.737517          -20.06886
     67       2.00000          -0.737220          -20.06077
     68       2.00000          -0.736991          -20.05455
     69       2.00000          -0.676677          -18.41333
     70       2.00000          -0.676051          -18.39629
     71       2.00000          -0.675542          -18.38243
     72       2.00000          -0.666709          -18.14208
     73       2.00000          -0.666286          -18.13055
     74       2.00000          -0.659869          -17.95596
     75       2.00000          -0.658504          -17.91881
     76       2.00000          -0.656303          -17.85892
     77       2.00000          -0.651587          -17.73058
     78       2.00000          -0.647866          -17.62934
     79       2.00000          -0.642654          -17.48750
     80       2.00000          -0.641196          -17.44784
     81       2.00000          -0.635810          -17.30127
     82       2.00000          -0.634624          -17.26899
     83       2.00000          -0.633794          -17.24641
     84       2.00000          -0.629348          -17.12542
     85       2.00000          -0.602747          -16.40158
     86       2.00000          -0.601305          -16.36234
     87       2.00000          -0.600436          -16.33870
     88       2.00000          -0.599706          -16.31883
     89       2.00000          -0.581924          -15.83497
     90       2.00000          -0.573657          -15.61000
     91       2.00000          -0.562996          -15.31991
     92       2.00000          -0.561242          -15.27218
     93       2.00000          -0.557257          -15.16374
     94       2.00000          -0.553010          -15.04816
     95       2.00000          -0.550888          -14.99042
     96       2.00000          -0.548334          -14.92092
     97       2.00000          -0.546892          -14.88170
     98       2.00000          -0.545265          -14.83741
     99       2.00000          -0.536048          -14.58662
    100       2.00000          -0.532256          -14.48343
    101       2.00000          -0.531272          -14.45663
    102       2.00000          -0.529816          -14.41702
    103       2.00000          -0.528220          -14.37360
    104       2.00000          -0.524027          -14.25949
    105       2.00000          -0.513749          -13.97983
    106       2.00000          -0.512956          -13.95825
    107       2.00000          -0.505512          -13.75569
    108       2.00000          -0.504075          -13.71658
    109       2.00000          -0.480677          -13.07989
    110       2.00000          -0.478665          -13.02514
    111       2.00000          -0.476121          -12.95590
    112       2.00000          -0.474826          -12.92067
    113       2.00000          -0.461558          -12.55963
    114       2.00000          -0.456092          -12.41089
    115       2.00000          -0.454045          -12.35519
    116       2.00000          -0.452942          -12.32517
    117       2.00000          -0.444299          -12.09000
    118       2.00000          -0.441707          -12.01947
    119       2.00000          -0.440728          -11.99283
    120       2.00000          -0.438640          -11.93599
    121       2.00000          -0.426439          -11.60400
    122       2.00000          -0.425222          -11.57089
    123       2.00000          -0.424750          -11.55804
    124       2.00000          -0.424349          -11.54711
    125       2.00000          -0.420014          -11.42916
    126       2.00000          -0.418336          -11.38351
    127       2.00000          -0.400092          -10.88705
    128       2.00000          -0.396834          -10.79841
    129       2.00000          -0.385182          -10.48133
    130       2.00000          -0.384246          -10.45588
    131       2.00000          -0.383570          -10.43746
    132       2.00000          -0.382501          -10.40838
    133       2.00000          -0.362766           -9.87137
    134       2.00000          -0.361308           -9.83168
    135       2.00000          -0.359257           -9.77588
    136       2.00000          -0.356614           -9.70397
    137       0.00000          -0.205598           -5.59459
    138       0.00000          -0.205175           -5.58309
    139       0.00000          -0.200810           -5.46433
    140       0.00000          -0.197146           -5.36462
    141       0.00000          -0.163798           -4.45717
    142       0.00000          -0.158488           -4.31269
    143       0.00000          -0.158325           -4.30824
    144       0.00000          -0.151616           -4.12568
    145       0.00000          -0.098674           -2.68505
    146       0.00000          -0.069198           -1.88298
    147       0.00000          -0.064256           -1.74850
    148       0.00000          -0.061965           -1.68615
    149       0.00000          -0.057270           -1.55840
    150       0.00000          -0.056015           -1.52425
    151       0.00000          -0.053311           -1.45067
    152       0.00000          -0.031001           -0.84358
    153       0.00000          -0.023777           -0.64699
    154       0.00000          -0.021617           -0.58822
    155       0.00000          -0.016961           -0.46154
    156       0.00000          -0.016601           -0.45175
    157       0.00000          -0.004688           -0.12758
    158       0.00000           0.002313            0.06294
    159       0.00000           0.007291            0.19839
    160       0.00000           0.008030            0.21851
    161       0.00000           0.018095            0.49238
    162       0.00000           0.019450            0.52925
    163       0.00000           0.028836            0.78466
    164       0.00000           0.033535            0.91255
    165       0.00000           0.036135            0.98330
    166       0.00000           0.038509            1.04789
    167       0.00000           0.042379            1.15318
    168       0.00000           0.044578            1.21303
    169       0.00000           0.045232            1.23083
    170       0.00000           0.053342            1.45150
    171       0.00000           0.056378            1.53413
    172       0.00000           0.062951            1.71299
    173       0.00000           0.070967            1.93110
    174       0.00000           0.072756            1.97979
    175       0.00000           0.073135            1.99009
    176       0.00000           0.087103            2.37020
    177       0.00000           0.088597            2.41083
    178       0.00000           0.096238            2.61878
    179       0.00000           0.100728            2.74095
    180       0.00000           0.104958            2.85605
    181       0.00000           0.105465            2.86985
    182       0.00000           0.111457            3.03291
    183       0.00000           0.114258            3.10911
    184       0.00000           0.114636            3.11940
    185       0.00000           0.126008            3.42886
    186       0.00000           0.129500            3.52388
    187       0.00000           0.141946            3.86256
    188       0.00000           0.144018            3.91894
    189       0.00000           0.144428            3.93009
    190       0.00000           0.145634            3.96289
    191       0.00000           0.148925            4.05245
    192       0.00000           0.150016            4.08213
    193       0.00000           0.158146            4.30338
    194       0.00000           0.166025            4.51777
    195       0.00000           0.169969            4.62508
    196       0.00000           0.172669            4.69855
    197       0.00000           0.177070            4.81832
    198       0.00000           0.177671            4.83468
    199       0.00000           0.180111            4.90106
    200       0.00000           0.184337            5.01606
    201       0.00000           0.195060            5.30784
    202       0.00000           0.197204            5.36620
    203       0.00000           0.202416            5.50801
    204       0.00000           0.212276            5.77631
    205       0.00000           0.213623            5.81297
    206       0.00000           0.215211            5.85620
    207       0.00000           0.218018            5.93258
    208       0.00000           0.220498            6.00006
    209       0.00000           0.224195            6.10065
    210       0.00000           0.236393            6.43259
    211       0.00000           0.242726            6.60490
    212       0.00000           0.244869            6.66323
    213       0.00000           0.255607            6.95543
    214       0.00000           0.260256            7.08192
    215       0.00000           0.264064            7.18555
    216       0.00000           0.266744            7.25847
    217       0.00000           0.275205            7.48871
    218       0.00000           0.287891            7.83392
    219       0.00000           0.291037            7.91951
    220       0.00000           0.292718            7.96526
    221       0.00000           0.301469            8.20338
    222       0.00000           0.318521            8.66741
    223       0.00000           0.323205            8.79486
    224       0.00000           0.324459            8.82899
    225       0.00000           0.327199            8.90355
    226       0.00000           0.336714            9.16245
    227       0.00000           0.340792            9.27343
    228       0.00000           0.347405            9.45338
    229       0.00000           0.350061            9.52564
    230       0.00000           0.351755            9.57175
    231       0.00000           0.364946            9.93069
    232       0.00000           0.366142            9.96322
    233       0.00000           0.377940           10.28427
    234       0.00000           0.383505           10.43570
    235       0.00000           0.385300           10.48455
    236       0.00000           0.396273           10.78314
    237       0.00000           0.404047           10.99468
    238       0.00000           0.406442           11.05986
    239       0.00000           0.412654           11.22890
    240       0.00000           0.425765           11.58567
    241       0.00000           0.442188           12.03254
    242       0.00000           0.447547           12.17838
    243       0.00000           0.456131           12.41195
    244       0.00000           0.467202           12.71322
    245       0.00000           0.472918           12.86874
    246       0.00000           0.490967           13.35989
    247       0.00000           0.494371           13.45251
    248       0.00000           0.497267           13.53132
    249       0.00000           0.513117           13.96262
    250       0.00000           0.520289           14.15778
    251       0.00000           0.528126           14.37104
    252       0.00000           0.533417           14.51501
    253       0.00000           0.548383           14.92225
    254       0.00000           0.553495           15.06137
    255       0.00000           0.557606           15.17324
    256       0.00000           0.565271           15.38180
    257       0.00000           0.573330           15.60109
    258       0.00000           0.581677           15.82824
    259       0.00000           0.589555           16.04260
    260       0.00000           0.590229           16.06096
    261       0.00000           0.595652           16.20852
    262       0.00000           0.603109           16.41142
    263       0.00000           0.616329           16.77115
    264       0.00000           0.624237           16.98635
    265       0.00000           0.643976           17.52349
    266       0.00000           0.645845           17.57435
    267       0.00000           0.648293           17.64095
    268       0.00000           0.650659           17.70533
    269       0.00000           0.660765           17.98032
    270       0.00000           0.661354           17.99636
    271       0.00000           0.663811           18.06320
    272       0.00000           0.671418           18.27021
    273       0.00000           0.688434           18.73325
    274       0.00000           0.693809           18.87951
    275       0.00000           0.701674           19.09351
    276       0.00000           0.705854           19.20727
    277       0.00000           0.707908           19.26316
    278       0.00000           0.709890           19.31710
    279       0.00000           0.717218           19.51648
    280       0.00000           0.718007           19.53796
    281       0.00000           0.724142           19.70489
    282       0.00000           0.730013           19.86466
    283       0.00000           0.738469           20.09476
    284       0.00000           0.741693           20.18249
    285       0.00000           0.750568           20.42398
    286       0.00000           0.752241           20.46952

  What follows are estimated values for band gap, HOMO, LUMO, etc.
  | They are estimated on a discrete k-point grid and not necessarily exact.
  | For converged numbers, create a DOS and/or band structure plot on a denser k-grid.

  Highest occupied state (VBM) at     -9.70397123 eV (relative to internal zero)
  | Occupation number:      2.00000000
  | K-point:       1 at    0.000000    0.000000    0.000000 (in units of recip. lattice)

  Lowest unoccupied state (CBM) at    -5.59495863 eV (relative to internal zero)
  | Occupation number:      0.00000000
  | K-point:       5 at    0.333333    0.000000    0.000000 (in units of recip. lattice)

  ESTIMATED overall HOMO-LUMO gap:      4.10901260 eV between HOMO at k-point 1 and LUMO at k-point 5
  | This appears to be an indirect band gap.
  | Smallest direct gap :      4.10937628 eV for k_point 1 at    0.000000    0.000000    0.000000 (in units of recip. lattice)
  The gap value is above 0.2 eV. Unless you are using a very sparse k-point grid,
  this system is most likely an insulator or a semiconductor.
  Calculating total energy contributions from superposition of free atom densities.

  Total energy components:
  | Sum of eigenvalues            :       -1103.37588477 Ha      -30024.38544849 eV
  | XC energy correction          :        -243.48329127 Ha       -6625.51745806 eV
  | XC potential correction       :         313.03822826 Ha        8518.20359239 eV
  | Free-atom electrostatic energy:        -853.27148973 Ha      -23218.69859004 eV
  | Hartree energy correction     :          -0.00000000 Ha          -0.00000000 eV
  | Entropy correction            :          -0.00000000 Ha          -0.00000000 eV
  | ---------------------------
  | Total energy                  :       -1887.09243751 Ha      -51350.39790420 eV
  | Total energy, T -> 0          :       -1887.09243751 Ha      -51350.39790420 eV  <-- do not rely on this value for anything but (periodic) metals
  | Electronic free energy        :       -1887.09243751 Ha      -51350.39790420 eV

  Derived energy quantities:
  | Kinetic energy                :        1873.96136304 Ha       50993.08318774 eV
  | Electrostatic energy          :       -3517.57050928 Ha      -95717.96363388 eV
  | Energy correction for multipole
  | error in Hartree potential    :           0.00000000 Ha           0.00000000 eV
  | Sum of eigenvalues per atom                           :        -469.13102263 eV
  | Total energy (T->0) per atom                          :        -802.34996725 eV  <-- do not rely on this value for anything but (periodic) metals
  | Electronic free energy per atom                       :        -802.34996725 eV
  Initialize hartree_potential_storage
  Max. number of atoms included in rho_multipole:           64

  End scf initialization - timings             :  max(cpu_time)    wall_clock(cpu1)
  | Time for scf. initialization               :       37.147 s          37.255 s
  | Boundary condition initialization          :        0.422 s           0.423 s
  | Integration                                :       15.795 s          15.811 s
  | Solution of K.-S. eqns.                    :        1.703 s           1.726 s
  | Grid partitioning                          :        1.386 s           1.403 s
  | Preloading free-atom quantities on grid    :       15.510 s          15.524 s
  | Free-atom superposition energy             :        2.284 s           2.283 s
  | Total energy evaluation                    :        0.001 s           0.011 s

  Partial memory accounting:
  | Current value for overall tracked memory usage:
  |   Minimum:       30.173 MB (on task 0)
  |   Maximum:       30.173 MB (on task 0)
  |   Average:       30.173 MB
  | Peak value for overall tracked memory usage:
  |   Minimum:       55.501 MB (on task 0 after allocating eval_tmp)
  |   Maximum:       55.501 MB (on task 0 after allocating eval_tmp)
  |   Average:       55.501 MB
  | Largest tracked array allocation so far:
  |   Minimum:       14.052 MB (KS_eigenvector_complex on task 0)
  |   Maximum:       14.052 MB (KS_eigenvector_complex on task 0)
  |   Average:       14.052 MB
  Note:  These values currently only include a subset of arrays which are explicitly tracked.
  The "true" memory usage will be greater.
------------------------------------------------------------
Convergence:    q app. |  density  | eigen (eV) | Etot (eV) |             . |       CPU time |     Clock time
  SCF    1 : -0.80E-12 |  0.13E+01 |   0.64E+02 |  0.49E+01 |             . |       54.272 s |       54.273 s
  SCF    2 :  0.13E-11 |  0.12E+01 |   0.59E+03 |  0.23E+02 |             . |       56.958 s |       56.970 s
  SCF    3 :  0.20E-11 |  0.48E+00 |   0.53E+02 |  0.12E+01 |             . |       56.653 s |       56.654 s
  SCF    4 : -0.23E-11 |  0.27E+00 |   0.10E+03 |  0.37E+00 |             . |       54.198 s |       54.200 s
  SCF    5 :  0.47E-11 |  0.98E-01 |  -0.18E+02 |  0.99E-01 |             . |       54.326 s |       54.327 s
  SCF    6 : -0.28E-11 |  0.50E-01 |  -0.57E+01 |  0.18E-01 |             . |       53.487 s |       53.488 s
  SCF    7 :  0.19E-11 |  0.34E-01 |   0.32E+01 |  0.68E-02 |             . |       53.792 s |       53.793 s
  SCF    8 : -0.69E-12 |  0.28E-01 |   0.14E+01 |  0.68E-02 |             . |       53.781 s |       53.781 s
  SCF    9 :  0.57E-12 |  0.23E-01 |   0.19E+01 |  0.10E-01 |             . |       53.474 s |       53.475 s
  SCF   10 :  0.32E-11 |  0.12E-01 |   0.17E+01 |  0.54E-02 |             . |       53.610 s |       53.611 s
  SCF   11 :  0.49E-11 |  0.24E-02 |  -0.81E-01 |  0.17E-03 |             . |       53.649 s |       53.650 s
  SCF   12 :  0.14E-11 |  0.80E-03 |  -0.51E-01 | -0.10E-03 |             . |       53.456 s |       53.457 s
  SCF   13 : -0.18E-11 |  0.65E-03 |   0.53E-01 | -0.97E-04 |             . |       53.387 s |       53.389 s
  SCF   14 :  0.17E-11 |  0.26E-03 |   0.53E-01 | -0.27E-04 |             . |       56.613 s |       56.615 s
  SCF   15 :  0.24E-12 |  0.74E-04 |  -0.44E-02 |  0.63E-05 |             . |       53.776 s |       53.777 s
  SCF   16 :  0.15E-11 |  0.42E-04 |  -0.51E-02 |  0.56E-05 |             . |       53.447 s |       53.447 s
  SCF   17 : -0.10E-11 |  0.24E-04 |  -0.14E-02 |  0.38E-05 |             . |       53.193 s |       53.193 s
  SCF   18 :  0.40E-11 |  0.59E-05 |   0.13E-02 | -0.72E-06 |             . |       37.798 s |       37.798 s

  Total energy components:
  | Sum of eigenvalues            :       -1074.10395371 Ha      -29227.85567742 eV
  | XC energy correction          :        -247.37293808 Ha       -6731.36013293 eV
  | XC potential correction       :         318.03316375 Ha        8654.12270250 eV
  | Free-atom electrostatic energy:        -853.27148973 Ha      -23218.69859004 eV
  | Hartree energy correction     :         -29.29826781 Ha        -797.24643053 eV
  | Entropy correction            :          -0.00000000 Ha          -0.00000000 eV
  | ---------------------------
  | Total energy                  :       -1886.01348558 Ha      -51321.03812842 eV
  | Total energy, T -> 0          :       -1886.01348558 Ha      -51321.03812842 eV  <-- do not rely on this value for anything but (periodic) metals
  | Electronic free energy        :       -1886.01348558 Ha      -51321.03812842 eV

  Derived energy quantities:
  | Kinetic energy                :        1881.94488071 Ha       51210.32575691 eV
  | Electrostatic energy          :       -3520.58542822 Ha      -95800.00375241 eV
  | Energy correction for multipole
  | error in Hartree potential    :           0.35748377 Ha           9.72762825 eV
  | Sum of eigenvalues per atom                           :        -456.68524496 eV
  | Total energy (T->0) per atom                          :        -801.89122076 eV  <-- do not rely on this value for anything but (periodic) metals
  | Electronic free energy per atom                       :        -801.89122076 eV
  What follows are estimated values for band gap, HOMO, LUMO, etc.
  | They are estimated on a discrete k-point grid and not necessarily exact.
  | For converged numbers, create a DOS and/or band structure plot on a denser k-grid.

  Highest occupied state (VBM) at     -7.39024108 eV (relative to internal zero)
  | Occupation number:      2.00000000
  | K-point:       3 at    0.000000    0.333333    0.000000 (in units of recip. lattice)

  Lowest unoccupied state (CBM) at    -3.85011361 eV (relative to internal zero)
  | Occupation number:      0.00000000
  | K-point:       1 at    0.000000    0.000000    0.000000 (in units of recip. lattice)

  ESTIMATED overall HOMO-LUMO gap:      3.54012746 eV between HOMO at k-point 3 and LUMO at k-point 1
  | This appears to be an indirect band gap.
  | Smallest direct gap :      3.58119516 eV for k_point 1 at    0.000000    0.000000    0.000000 (in units of recip. lattice)
  The gap value is above 0.2 eV. Unless you are using a very sparse k-point grid,
  this system is most likely an insulator or a semiconductor.

  Self-consistency cycle converged.


  Energy and forces in a compact form:
  | Total energy uncorrected      :         -0.513210381284233E+05 eV
  | Total energy corrected        :         -0.513210381284233E+05 eV  <-- do not rely on this value for anything but (periodic) metals
  | Electronic free energy        :         -0.513210381284233E+05 eV

 Output mulliken decomposition of band k points in LAPACK

  -------------------------------------------------------------------
  Writing the requested band Mulliken decomposition output (LAPACK version):
  -------------------------------------------------------------------

  Integrating Hamiltonian matrix: batch-based integration.
  Time summed over all CPUs for integration: real work       17.502 s, elapsed       17.565 s

  Treating all    8 k-points in band plot segment #   1:

  Performing scalar-relativistic Mulliken charge analysis on all atoms.
 n_atoms, n_states, n_spin,n_k_points          64         286           1           8
  Allocating        3.352 MB for mulliken_decomp

  Treating all    9 k-points in band plot segment #   2:

  Performing scalar-relativistic Mulliken charge analysis on all atoms.
 n_atoms, n_states, n_spin,n_k_points          64         286           1           9
  Allocating        3.771 MB for mulliken_decomp

  Treating all   11 k-points in band plot segment #   3:

  Performing scalar-relativistic Mulliken charge analysis on all atoms.
 n_atoms, n_states, n_spin,n_k_points          64         286           1          11
  Allocating        4.608 MB for mulliken_decomp

  Treating all   11 k-points in band plot segment #   4:

  Performing scalar-relativistic Mulliken charge analysis on all atoms.
 n_atoms, n_states, n_spin,n_k_points          64         286           1          11
  Allocating        4.608 MB for mulliken_decomp

  Treating all   14 k-points in band plot segment #   5:

  Performing scalar-relativistic Mulliken charge analysis on all atoms.
 n_atoms, n_states, n_spin,n_k_points          64         286           1          14
  Allocating        5.865 MB for mulliken_decomp

  Treating all    6 k-points in band plot segment #   6:

  Performing scalar-relativistic Mulliken charge analysis on all atoms.
 n_atoms, n_states, n_spin,n_k_points          64         286           1           6
  Allocating        2.514 MB for mulliken_decomp

  Treating all   10 k-points in band plot segment #   7:

  Performing scalar-relativistic Mulliken charge analysis on all atoms.
 n_atoms, n_states, n_spin,n_k_points          64         286           1          10
  Allocating        4.189 MB for mulliken_decomp

------------------------------------------------------------------------------
  Final output of selected total energy values:

  The following output summarizes some interesting total energy values
  at the end of a run (AFTER all relaxation, molecular dynamics, etc.).

  | Total energy of the DFT / Hartree-Fock s.c.f. calculation      :         -51321.038128423 eV
  | Final zero-broadening corrected energy (caution - metals only) :         -51321.038128423 eV
  | For reference only, the value of 1 Hartree used in FHI-aims is :             27.211384500 eV
  | For reference only, the overall average (free atom contribution
  | + realspace contribution) of the electrostatic potential after
  | s.c.f. convergence is                                          :             -8.152586056 eV

  Before relying on these values, please be sure to understand exactly which
  total energy value is referred to by a given number. Different objects may
  all carry the same name 'total energy'. Definitions:

  Total energy of the DFT / Hartree-Fock s.c.f. calculation:
  | Note that this energy does not include ANY quantities calculated after the
  | s.c.f. cycle, in particular not ANY RPA, MP2, etc. many-body perturbation terms.

  Final zero-broadening corrected energy:
  | For metallic systems only, a broadening of the occupation numbers at the Fermi
  | level can be extrapolated back to zero broadening by an electron-gas inspired
  | formula. For all systems that are not real metals, this value can be
  | meaningless and should be avoided.

------------------------------------------------------------------------------
  Methods described in the following list of references were used in this FHI-aims run.
  If you publish the results, please make sure to cite these reference if they apply.
  FHI-aims is an academic code, and for our developers (often, Ph.D. students
  and postdocs), scientific credit in the community is essential.
  Thank you for helping us!

  For any use of FHI-aims, please cite:

    Volker Blum, Ralf Gehrke, Felix Hanke, Paula Havu, Ville Havu,
    Xinguo Ren, Karsten Reuter, and Matthias Scheffler
    'Ab initio molecular simulations with numeric atom-centered orbitals'
    Computer Physics Communications 180, 2175-2196 (2009)
    http://dx.doi.org/10.1016/j.cpc.2009.06.022


  The provided symmetry information was generated with SPGlib:

    Atsushi Togo, Yusuke Seto, Dimitar Pashov
    SPGlib 1.7.3 obtained from http://spglib.sourceforge.net
    Copyright (C) 2008 Atsushi Togo


  The ELSI infrastructure was used in your run to solve the Kohn-Sham electronic structure.
  Please check out http://elsi-interchange.org to learn more.
  If scalability is important for your project, please acknowledge ELSI by citing:

    V. W-z. Yu, F. Corsetti, A. Garcia, W. P. Huhn, M. Jacquelin, W. Jia,
    B. Lange, L. Lin, J. Lu, W. Mi, A. Seifitokaldani, A. Vazquez-Mayagoitia,
    C. Yang, H. Yang, and V. Blum
    'ELSI: A unified software interface for Kohn-Sham electronic structure solvers'
    Computer Physics Communications 222, 267-285 (2018).
    http://dx.doi.org/10.1016/j.cpc.2017.09.007


  For the real-space grid partitioning and parallelization used in this calculation, please cite:

    Ville Havu, Volker Blum, Paula Havu, and Matthias Scheffler,
    'Efficient O(N) integration for all-electron electronic structure calculation'
    'using numerically tabulated basis functions'
    Journal of Computational Physics 228, 8367-8379 (2009).
    http://dx.doi.org/10.1016/j.jcp.2009.08.008

  Of course, there are many other important community references, e.g., those cited in the
  above references. Our list is limited to references that describe implementations in the
  FHI-aims code. The reason is purely practical (length of this list) - please credit others as well.

------------------------------------------------------------
          Leaving FHI-aims.
          Date     :  20210228, Time     :  123748.631

          Computational steps:
          | Number of self-consistency cycles          :           18
          | Number of SCF (re)initializations          :            1

          Detailed time accounting                     :  max(cpu_time)    wall_clock(cpu1)
          | Total time                                 :     1083.558 s        1083.918 s
          | Preparation time                           :        0.140 s           0.153 s
          | Boundary condition initalization           :        0.422 s           0.423 s
          | Grid partitioning                          :        1.386 s           1.403 s
          | Preloading free-atom quantities on grid    :       15.510 s          15.524 s
          | Free-atom superposition energy             :        2.284 s           2.283 s
          | Total time for integrations                :      174.020 s         174.039 s
          | Total time for solution of K.-S. equations :       23.274 s          23.298 s
          | Total time for density update              :      281.219 s         281.221 s
          | Total time for mixing & preconditioning    :      266.153 s         266.168 s
          | Total time for Hartree multipole update    :        0.332 s           0.333 s
          | Total time for Hartree multipole sum       :      247.767 s         247.770 s
          | Total time for total energy evaluation     :        0.004 s           0.015 s
          | Total time for scaled ZORA corrections     :        0.000 s           0.000 s

          Partial memory accounting:
          | Residual value for overall tracked memory usage across tasks:    18.297424 MB (should be 0.000000 MB)
          |
          | Largest tracked array allocation:
          |   Minimum:       19.673 MB (KS_eigenvector_complex on task 0)
          |   Maximum:       19.673 MB (KS_eigenvector_complex on task 0)
          |   Average:       19.673 MB
          |
          | Because the residual tracked memory usage was not zero, the peak value for overall
          | tracked memory usage was not output, as it is probably incorrect.  This is likely due
          | to a missing aims_deallocate statement in the source code, which should be otherwise
          | harmless.
          |
          Note:  These values currently only include a subset of arrays which are explicitly tracked.
          The "true" memory usage will be greater.

          Have a nice day.
------------------------------------------------------------
