------------------------------------------------------------
          Invoking FHI-aims ...

          When using FHI-aims, please cite the following reference:

          Volker Blum, Ralf Gehrke, Felix Hanke, Paula Havu,
          Ville Havu, Xinguo Ren, Karsten Reuter, and Matthias Scheffler,
          'Ab Initio Molecular Simulations with Numeric Atom-Centered Orbitals',
          Computer Physics Communications 180, 2175-2196 (2009)

          For any questions about FHI-aims, please visit the aimsclub website
          with its forums and wiki. Contributions to both the forums and the
          wiki are warmly encouraged - they are for you, and everyone is welcome there.

------------------------------------------------------------



  Date     :  20200420, Time     :  204645.447
  Time zero on CPU 1             :   0.121030000000000E+00  s.
  Internal wall clock time zero  :           356647605.447  s.

  FHI-aims created a unique identifier for this run for later identification
  aims_uuid : EB2F9876-643B-462E-A2DF-AE2C221B1E27

  Build configuration of the current instance of FHI-aims
  -------------------------------------------------------
  FHI-aims version      : 200112
  Commit number         : 23daeca3f
  CMake host system     : Linux-3.10.0-693.21.1.el7.x86_64
  CMake version         : 3.13.3
  Fortran compiler      : /sw/installed/impi/2018.4.274-iccifort-2019.1.144-GCC-8.2.0-2.31.1/bin64/mpiifort (Intel) version 19.0.0.20181018
  Fortran compiler flags: -O3 -ip -fp-model precise
  C compiler            : /sw/installed/impi/2018.4.274-iccifort-2019.1.144-GCC-8.2.0-2.31.1/bin64/mpiicc (Intel) version 19.0.0.20181018
  C compiler flags      : -O3 -ip -fp-model precise
  Architecture          :
  Using MPI
  Using Scalapack
  Using C files
  Using LibXC
  Using SPGlib
  Using i-PI
  Using RLSY
  Linking against: /sw/installed/imkl/2019.1.144-iimpi-2019a/mkl/lib/intel64/libmkl_intel_lp64.so
                   /sw/installed/imkl/2019.1.144-iimpi-2019a/mkl/lib/intel64/libmkl_sequential.so
                   /sw/installed/imkl/2019.1.144-iimpi-2019a/mkl/lib/intel64/libmkl_core.so
                   /sw/installed/imkl/2019.1.144-iimpi-2019a/mkl/lib/intel64/libmkl_blacs_intelmpi_lp64.so
                   /sw/installed/imkl/2019.1.144-iimpi-2019a/mkl/lib/intel64/libmkl_scalapack_lp64.so

  Using       24 parallel tasks.
  Task        0 on host taurusi6413.taurus.hrsk.tu-dresden.de reporting.
  Task        1 on host taurusi6413.taurus.hrsk.tu-dresden.de reporting.
  Task        2 on host taurusi6413.taurus.hrsk.tu-dresden.de reporting.
  Task        3 on host taurusi6413.taurus.hrsk.tu-dresden.de reporting.
  Task        4 on host taurusi6413.taurus.hrsk.tu-dresden.de reporting.
  Task        5 on host taurusi6413.taurus.hrsk.tu-dresden.de reporting.
  Task        6 on host taurusi6413.taurus.hrsk.tu-dresden.de reporting.
  Task        7 on host taurusi6413.taurus.hrsk.tu-dresden.de reporting.
  Task        8 on host taurusi6413.taurus.hrsk.tu-dresden.de reporting.
  Task        9 on host taurusi6413.taurus.hrsk.tu-dresden.de reporting.
  Task       10 on host taurusi6413.taurus.hrsk.tu-dresden.de reporting.
  Task       11 on host taurusi6413.taurus.hrsk.tu-dresden.de reporting.
  Task       12 on host taurusi6413.taurus.hrsk.tu-dresden.de reporting.
  Task       13 on host taurusi6413.taurus.hrsk.tu-dresden.de reporting.
  Task       14 on host taurusi6413.taurus.hrsk.tu-dresden.de reporting.
  Task       15 on host taurusi6413.taurus.hrsk.tu-dresden.de reporting.
  Task       16 on host taurusi6413.taurus.hrsk.tu-dresden.de reporting.
  Task       17 on host taurusi6413.taurus.hrsk.tu-dresden.de reporting.
  Task       18 on host taurusi6413.taurus.hrsk.tu-dresden.de reporting.
  Task       19 on host taurusi6413.taurus.hrsk.tu-dresden.de reporting.
  Task       20 on host taurusi6413.taurus.hrsk.tu-dresden.de reporting.
  Task       21 on host taurusi6413.taurus.hrsk.tu-dresden.de reporting.
  Task       22 on host taurusi6413.taurus.hrsk.tu-dresden.de reporting.
  Task       23 on host taurusi6413.taurus.hrsk.tu-dresden.de reporting.

  Performing system and environment tests:
  | Environment variable OMP_NUM_THREADS correctly set to 1.
  | Maximum stacksize for task 0: unlimited
  | Maximum stacksize for task 1: unlimited
  | Maximum stacksize for task 2: unlimited
  | Maximum stacksize for task 3: unlimited
  | Maximum stacksize for task 4: unlimited
  | Maximum stacksize for task 5: unlimited
  | Maximum stacksize for task 6: unlimited
  | Maximum stacksize for task 7: unlimited
  | Maximum stacksize for task 8: unlimited
  | Maximum stacksize for task 9: unlimited
  | Maximum stacksize for task 10: unlimited
  | Maximum stacksize for task 11: unlimited
  | Maximum stacksize for task 12: unlimited
  | Maximum stacksize for task 13: unlimited
  | Maximum stacksize for task 14: unlimited
  | Maximum stacksize for task 15: unlimited
  | Maximum stacksize for task 16: unlimited
  | Maximum stacksize for task 17: unlimited
  | Maximum stacksize for task 18: unlimited
  | Maximum stacksize for task 19: unlimited
  | Maximum stacksize for task 20: unlimited
  | Maximum stacksize for task 21: unlimited
  | Maximum stacksize for task 22: unlimited
  | Maximum stacksize for task 23: unlimited
  | Current stacksize for task 0: unlimited
  | Current stacksize for task 1: unlimited
  | Current stacksize for task 2: unlimited
  | Current stacksize for task 3: unlimited
  | Current stacksize for task 4: unlimited
  | Current stacksize for task 5: unlimited
  | Current stacksize for task 6: unlimited
  | Current stacksize for task 7: unlimited
  | Current stacksize for task 8: unlimited
  | Current stacksize for task 9: unlimited
  | Current stacksize for task 10: unlimited
  | Current stacksize for task 11: unlimited
  | Current stacksize for task 12: unlimited
  | Current stacksize for task 13: unlimited
  | Current stacksize for task 14: unlimited
  | Current stacksize for task 15: unlimited
  | Current stacksize for task 16: unlimited
  | Current stacksize for task 17: unlimited
  | Current stacksize for task 18: unlimited
  | Current stacksize for task 19: unlimited
  | Current stacksize for task 20: unlimited
  | Current stacksize for task 21: unlimited
  | Current stacksize for task 22: unlimited
  | Current stacksize for task 23: unlimited
  | Checking for scalapack...
  | Testing pdtran()...
  | All pdtran() tests passed.

  Obtaining array dimensions for all initial allocations:
  
  -----------------------------------------------------------------------
  Parsing control.in (first pass over file, find array dimensions only).
  The contents of control.in will be repeated verbatim below
  unless switched off by setting 'verbatim_writeout .false.' .
  in the first line of control.in .
  -----------------------------------------------------------------------
  
  #===============================================================================
  # FHI-aims file: ./control.in
  # Created using the Atomic Simulation Environment (ASE)
  # Thu Apr  2 11:27:09 2020
  #===============================================================================
  xc                                 pbe
  # include_spin_orbit
  # vdw_correction_hirshfeld
  many_body_dispersion
  spin                               none
  k_grid 	 	 16 16 13
  relativistic                       atomic_zora scalar
  energy_tolerance 1e-2
  harmonic_length_scale  0.015
  ### SCF settings
  adjust_scf 	 always 	 3
  # frozen_core_scf 	 .true.
  # charge_mix_param  0.05
  # occupation_type 	 gaussian 	 0.01
  # sc_accuracy_eev   1E-3 	 	 # sum of eigenvalues convergence
  # sc_accuracy_etot  1E-6 	 	 # total energy convergence
  # sc_accuracy_rho   1E-3 	 	 # electron density convergence
  # elsi_restart 	 read_and_write 	 1000
  ### geometry optimisation section
  relax_geometry 	 bfgs 	 1E-2
  relax_unit_cell 	 full
  #===============================================================================
  
  ################################################################################
  #
  #  FHI-aims code project
  # Volker Blum, Fritz Haber Institute Berlin, 2009
  #
  #  Suggested "tight" defaults for Pd atom (to be pasted into control.in file)
  #
  ################################################################################
    species        Pd
  #     global species definitions
      nucleus             46
      mass                106.42
  #
      l_hartree           6
  #
      cut_pot             4.0  2.0  1.0
      basis_dep_cutoff    1e-4
  #
      radial_base         62 7.0
      radial_multiplier   2
      angular_grids specified
        division   0.3627   50
        division   0.7349  110
        division   1.0624  194
        division   1.2496  302
        division   1.6740  434
  #      division   2.0126  590
  #      division   2.0830  770
  #      division   2.7936 1202
  #       outer_grid  974
        outer_grid  434
  ################################################################################
  #
  #  Definition of "minimal" basis
  #
  ################################################################################
  #     valence basis states
      valence      5  s   1.
      valence      4  p   6.
      valence      4  d   9.
  #     ion occupancy
      ion_occ     5  s   0.
      ion_occ     4  p   6.
      ion_occ     4  d   8.
  ################################################################################
  #
  #  Suggested additional basis functions. For production calculations,
  #  uncomment them one after another (the most important basis functions are
  #  listed first).
  #
  #  Constructed for dimers: 2.0 A, 2.275 A, 2.75 A, 3.75 A
  #
  ################################################################################
  #  "First tier" - max. impr. -120.76  meV, min. impr. -5.71 meV
       ionic 5 p auto
       hydro 4 f 8
       hydro 5 g 10
       hydro 3 s 2.6
       hydro 3 d 2.5
  #  "Second tier" - max. impr. -5.00  meV, min. impr. -0.62 meV
  #     hydro 5 f 17.2
  #     hydro 6 h 14
  #     hydro 4 d 4
  #     hydro 5 f 7.6
  #     hydro 3 p 3.3
  #     hydro 4 s 9.4
  #  "Third tier" - max. impr. -0.54  meV, min. impr. -0.14 meV
  #     hydro 4 f 20
  #     hydro 5 g 12.8
  #     hydro 5 d 9.8
  #     hydro 6 h 15.2
  #     hydro 5 s 10
  #     hydro 6 p 9.8
  #  "Fourth tier" - max. impr. -0.15  meV, min. impr. -0.05 meV
  #     hydro 5 f 9.2
  #     hydro 2 s 5.6
  #     hydro 5 f 43.2
  #     hydro 5 d 13.2
  #     hydro 5 g 14
  #     hydro 4 p 4.7
  ################################################################################
  #
  #  FHI-aims code project
  # Volker Blum, Fritz Haber Institute Berlin, 2009
  #
  #  Suggested "tight" defaults for Se atom (to be pasted into control.in file)
  #
  ################################################################################
    species        Se
  #     global species definitions
      nucleus             34
      mass                78.96
  #
      l_hartree           6
  #
      cut_pot             4.0          2.0  1.0
      basis_dep_cutoff    1e-4
  #
      radial_base         55 7.0
      radial_multiplier   2
      angular_grids       specified
        division   0.0830  110
        division   0.1357  194
        division   0.7377  302
        division   0.8610  434
  #      division   0.9640  590
  #      division   1.0773  770
  #      division   2.5539  974
  #      outer_grid  974
        outer_grid  434
  ################################################################################
  #
  #  Definition of "minimal" basis
  #
  ################################################################################
  #     valence basis states
      valence      4  s   2.
      valence      4  p   4.
      valence      3  d  10.
  #     ion occupancy
      ion_occ      4  s   1.
      ion_occ      4  p   3.
      ion_occ      3  d  10.
  ################################################################################
  #
  #  Suggested additional basis functions. For production calculations,
  #  uncomment them one after another (the most important basis functions are
  #  listed first).
  #
  #  Constructed for dimers: 1.85 A, 2.15 A, 2.50 A, 3.00 A, 4.00 A
  #
  ################################################################################
  #  "First tier" - improvements: -336.21 meV to -36.85 meV
       hydro 3 d 4.3
       hydro 2 p 1.6
       hydro 4 f 7.2
       ionic 4 s auto
  #  "Second tier" - improvements: -14.39 meV to -1.49 meV
  #     hydro 5 g 10.4
  #     hydro 4 p 4.5
  #     hydro 4 d 6.2
  #     hydro 4 f 11.2
  #     hydro 1 s 0.65
  #     hydro 6 h 15.2
  #  "Third tier" - improvements: -0.46 meV and below
  #     hydro 5 g 14.4
  #     ionic 4 d auto
  #     hydro 4 f 22.4
  #     hydro 5 f 7.4
  #     hydro 5 p 8
  #     hydro 5 s 9.4
  #  "Fourth tier" - improvements: -0.12 meV and below
  #     hydro 5 d 11.6
  #     hydro 6 h 18
  #     hydro 4 p 4
  #     hydro 5 f 16
  #     hydro 4 s 3.9
  #
  #
  
  -----------------------------------------------------------------------
  Completed first pass over input file control.in .
  -----------------------------------------------------------------------
  
  
  -----------------------------------------------------------------------
  Parsing geometry.in (first pass over file, find array dimensions only).
  The contents of geometry.in will be repeated verbatim below
  unless switched off by setting 'verbatim_writeout .false.' .
  in the first line of geometry.in .
  -----------------------------------------------------------------------
  
  #
  # This is the geometry file that corresponds to the current relaxation step.
  # If you do not want this file to be written, set the "write_restart_geometry" flag to .false.
  #  aims_uuid : 55F68E65-BF40-4F8D-A130-5440BCF83CC8
  #
  lattice_vector      5.85088863      0.00000000      0.00000000
  lattice_vector      0.00000000      5.95703911      0.00000000
  lattice_vector      0.00000000      0.00000000      7.44938335
  atom_frac       0.50226164      0.00170238      0.00160354 Pd
  atom_frac       0.00169286      0.00169183      0.50237382 Pd
  atom_frac       0.00175015      0.50226882      0.00160894 Pd
  atom_frac       0.50231880      0.50225989      0.50237068 Pd
  atom_frac       0.61410790      0.11975580      0.40422842 Se
  atom_frac       0.89101457      0.88481307      0.90472275 Se
  atom_frac       0.11352290      0.38426863      0.60042321 Se
  atom_frac       0.39042724      0.62033077      0.09975246 Se
  atom_frac       0.39045279      0.88482861      0.60042558 Se
  atom_frac       0.11353315      0.11974121      0.09975693 Se
  atom_frac       0.89101585      0.62032973      0.40423525 Se
  atom_frac       0.61412520      0.38423231      0.90472148 Se
  #
  # What follows is the current estimated Hessian matrix constructed by the BFGS algorithm.
  # This is NOT the true Hessian matrix of the system.
  # If you do not want this information here, switch it off using the "hessian_to_restart_geometry" keyword.
  #
  trust_radius             0.0122099705
  hessian_block                1       1           6.292982          -0.437514          -2.402905          -0.437514           7.29586
  hessian_block                1       2          -0.612791           1.463887           0.411731          -0.450655           1.35014
  hessian_block                1       3          -0.915419           1.980416           0.612062           0.171787          -0.41713
  hessian_block                1       4           0.564539           0.194419          -0.085494           0.084088          -0.52188
  hessian_block                1       5           0.368789          -1.161676          -0.466843          -0.959012           1.37642
  hessian_block                1       6          -0.957846          -1.436100           0.059874           1.344934          -1.91331
  hessian_block                1       7          -0.846973           1.065659           0.529041           0.327244          -0.08847
  hessian_block                1       8           0.130629          -1.156466           0.073925          -0.080880          -2.32542
  hessian_block                1       9          -0.155327           0.062268           0.203174           0.279170          -1.50607
  hessian_block                1      10          -3.340921           2.528375           1.737407          -1.034165           1.29892
  hessian_block                1      11           0.684257          -1.626700          -0.596247           0.731456          -0.60704
  hessian_block                1      12           0.353988          -1.476572          -0.075728           0.023546          -2.29497
  hessian_block                2       2           7.153244           1.698413           3.187922           1.698413           9.09996
  hessian_block                2       3           2.502463           2.871111           1.739396          -0.774943          -1.05157
  hessian_block                2       4           0.162194           0.536256           0.106560          -0.474371           0.77743
  hessian_block                2       5          -2.875722          -0.929404          -1.588647           1.678048           0.73282
  hessian_block                2       6          -2.090550          -2.085845          -1.170670          -2.031886          -3.13412
  hessian_block                2       7           0.862384           0.449715           0.383490          -0.805768          -2.05193
  hessian_block                2       8          -0.927295          -1.374362          -0.805896          -0.427840          -1.06619
  hessian_block                2       9          -1.979518           0.442075          -0.921813          -0.702860          -2.48841
  hessian_block                2      10           2.408434           2.365667           1.581213           2.233004           3.62797
  hessian_block                2      11          -1.758485          -2.191025          -1.169522          -1.409946          -4.47565
  hessian_block                2      12          -1.278446          -1.331948          -0.834352          -0.445739           0.32659
  hessian_block                3       3           8.974994          -1.073214           3.865533          -1.073214           6.46793
  hessian_block                3       4           0.273509          -0.223031          -0.083660          -0.248342           0.01220
  hessian_block                3       5          -1.755798           0.385840          -1.008969           1.540608           0.08476
  hessian_block                3       6          -3.083804           0.990345          -1.925091          -2.620089          -1.12135
  hessian_block                3       7           1.388559          -0.195161           0.997697          -0.303758           0.06941
  hessian_block                3       8          -3.178678           0.002695          -1.455763          -1.473961          -0.12735
  hessian_block                3       9          -0.209597           0.330825           0.181792          -1.949282           0.30401
  hessian_block                3      10           3.319695          -0.169965           1.907864           4.137863          -2.96526
  hessian_block                3      11          -2.200605           0.478768          -1.245500          -1.945919           0.60485
  hessian_block                3      12          -3.549408           0.076051          -1.698024          -0.915431          -0.21348
  hessian_block                4       4           5.970349           0.146150          -1.982642           0.146150           7.05303
  hessian_block                4       5          -0.449597           0.624642           0.039354           0.071869          -2.28224
  hessian_block                4       6          -0.015987           0.374832          -0.223243          -0.189342          -0.53998
  hessian_block                4       7          -2.045330          -0.836394           0.911917          -0.154994          -0.19130
  hessian_block                4       8          -0.258441          -0.166918          -0.319283           0.046437          -0.54495
  hessian_block                4       9          -0.276063           0.657456           0.150488           0.158784          -2.32697
  hessian_block                4      10          -0.505164          -0.296757           0.304782          -0.270973           1.00722
  hessian_block                4      11          -1.793365          -0.110038           0.594061          -0.762233          -1.41333
  hessian_block                4      12          -0.060735           0.245652          -0.243820           0.446657           0.61781
  hessian_block                5       5           5.898521          -1.274720          -0.985821          -1.274720           7.54387
  hessian_block                5       6           1.438675          -2.020536           0.003652           1.464797          -1.98639
  hessian_block                5       7          -1.019947           2.023130          -0.228315          -0.638702          -0.24536
  hessian_block                5       8           0.623050          -0.550627           0.536817           0.860382          -0.57077
  hessian_block                5       9          -1.375069          -0.323686           1.677102           0.555717          -3.17897
  hessian_block                5      10          -1.546994           2.511095          -0.017707          -1.414320           2.09879
  hessian_block                5      11           1.390246          -2.178246           0.387224           1.667918          -0.90453
  hessian_block                5      12           0.869756          -0.517924          -0.241959          -0.140477          -1.02136
  hessian_block                6       6           7.803471           2.826799           6.188430           2.826799           8.52835
  hessian_block                6       7          -1.218146          -1.524444          -2.616872           0.879554           0.64131
  hessian_block                6       8           0.851801           1.428849           1.963503           0.924756           1.12629
  hessian_block                6       9          -0.006752           0.038041          -0.149304           2.068224           2.81783
  hessian_block                6      10          -4.570219          -4.288066          -8.211134          -3.891541          -5.29353
  hessian_block                6      11           1.888957           2.237417           3.323274           0.784073           2.23764
  hessian_block                6      12           1.526308           1.312989           2.458682           0.585439           0.28427
  hessian_block                7       7           6.089680           0.210829           0.982880           0.210829           6.17766
  hessian_block                7       8          -0.599339           0.011629           0.164577          -0.376013          -0.23528
  hessian_block                7       9           0.420392           0.551466          -0.232686          -1.655222          -0.03557
  hessian_block                7      10           1.769965          -1.160516          -0.551913           1.783753          -0.94980
  hessian_block                7      11          -2.746484           0.834426          -1.526922          -0.188831          -2.00446
  hessian_block                7      12          -0.488854           0.248588           0.614980          -0.757019           0.56084
  hessian_block                8       8           5.171361           0.421849          -1.485787           0.421849           5.91991
  hessian_block                8       9           0.204545          -0.512191          -0.156375           0.946039           0.78913
  hessian_block                8      10          -1.084907          -1.186053           1.878303          -1.779314          -1.54362
  hessian_block                8      11           0.956956           0.404462          -1.266953           1.161221           1.64637
  hessian_block                8      12          -0.323774           1.399055           1.080182           1.055404          -1.42107
  hessian_block                9       9           5.020797          -0.599048          -0.777486          -0.599048           7.92056
  hessian_block                9      10           0.064238          -1.981845          -0.176576          -0.103190          -2.56100
  hessian_block                9      11          -0.243712           2.239983          -0.191359          -0.717041           1.76197
  hessian_block                9      12           0.101979           0.640339           0.632320           0.173024           0.15050
  hessian_block               10      10           9.098327           4.121628           5.351012           4.121628          10.71784
  hessian_block               10      11          -2.191514          -2.223886          -1.991973          -1.456448          -3.29566
  hessian_block               10      12          -1.855030          -1.558856          -1.707020          -0.987116          -0.49485
  hessian_block               11      11           6.723388           1.405567           1.181161           1.405567           8.74553
  hessian_block               11      12           0.856274           0.730186          -0.225939           0.729271          -0.64866
  hessian_block               12      12           5.413852           0.232439           0.240680           0.232439           5.80141
  hessian_block_lv             1       1          23.477169          -3.649345           5.316169          -3.649345          23.47220
  hessian_block_lv_atom        1       1          -0.115091          -0.127469          -0.456656           0.146646           0.37626
  hessian_block_lv_atom        1       2           0.135099           0.250887           0.721245           0.939402           1.03342
  hessian_block_lv_atom        1       3           0.322012           0.552092           1.084991           0.007773           0.08482
  hessian_block_lv_atom        1       4           0.007555           0.060460          -0.088455           0.730542           0.65786
  hessian_block_lv_atom        1       5          -0.140307          -0.303409          -0.297238           0.784962           1.03392
  hessian_block_lv_atom        1       6          -0.762576          -1.447574          -1.498052          -1.373898          -1.68215
  hessian_block_lv_atom        1       7           0.015854           0.078356           0.913127          -0.877669          -1.05793
  hessian_block_lv_atom        1       8          -0.274201          -0.250415          -0.682170          -0.219574          -0.30894
  hessian_block_lv_atom        1       9           0.147578           0.233441          -0.153706          -1.352770          -1.57341
  hessian_block_lv_atom        1      10           0.811244           1.566818           1.835986           1.543662           1.71633
  hessian_block_lv_atom        1      11          -0.164191          -0.315263          -1.095271          -0.231221          -0.09371
  hessian_block_lv_atom        1      12           0.017026          -0.297920          -0.283801          -0.097851          -0.18647
  symmetry_n_params 39 3 36
  symmetry_params a1 b2 c3 x0 x1 x2 x3 x4 x5 x6 x7 x8 x9 x10 x11 x12 x13 x14 x15 x16 x17 x18 x19 x20 x21 x22 x23 x24 x25 x26 x27 x28 x
  symmetry_lv a1 , 0 , 0
  symmetry_lv 0 , b2 , 0
  symmetry_lv 0 , 0 , c3
  symmetry_frac x0 , x1 , x2
  symmetry_frac x3 , x4 , x5
  symmetry_frac x6 , x7 , x8
  symmetry_frac x9 , x10 , x11
  symmetry_frac x12 , x13 , x14
  symmetry_frac x15 , x16 , x17
  symmetry_frac x18 , x19 , x20
  symmetry_frac x21 , x22 , x23
  symmetry_frac x24 , x25 , x26
  symmetry_frac x27 , x28 , x29
  symmetry_frac x30 , x31 , x32
  symmetry_frac x33 , x34 , x35
  
  -----------------------------------------------------------------------
  Completed first pass over input file geometry.in .
  -----------------------------------------------------------------------
  

  Basic array size parameters:
  | Number of species                 :        2
  | Number of atoms                   :       12
  | Number of lattice vectors         :        3
  | Max. basis fn. angular momentum   :        4
  | Max. atomic/ionic basis occupied n:        5
  | Max. number of basis fn. types    :        3
  | Max. radial fns per species/type  :       10
  | Max. logarithmic grid size        :     1444
  | Max. radial integration grid size :      125
  | Max. angular integration grid size:      434
  | Max. angular grid division number :        8
  | Radial grid for Hartree potential :     1444
  | Number of spin channels           :        1

------------------------------------------------------------
          Reading file control.in.
------------------------------------------------------------
  XC: Using PBE gradient-corrected functionals.
  Using libMBD for calculating MBD and TS energies
  Spin treatment: No spin polarisation.
  Found k-point grid:        16        16        13
  Scalar relativistic treatment of kinetic energy: on-site free-atom approximation to ZORA.
  Max energy increase before discarding BFGS move:   0.100000E-01 eV
  Assuming qualitatively harmonic for steps shorter than   0.150000E-01 A.
  S.C.F. convergence parameters will be adjusted in iteration number     3 of each new s.c.f. cycle.
  Geometry relaxation: Modified BFGS - TRM (trust radius method) for lattice optimization.
  Convergence accuracy for geometry relaxation: Maximum force <   0.100000E-01 eV/A.
 
  Reading configuration options for species Pd                  .
  | Found nuclear charge :  46.0000
  | Found atomic mass :    106.420000000000      amu
  | Found l_max for Hartree potential  :   6
  | Found cutoff potl. onset [A], width [A], scale factor :    4.00000    2.00000    1.00000
  | Threshold for basis-dependent cutoff potential is   0.100000E-03
  | Found data for basic radial integration grid :    62 points, outermost radius =    7.000 A
  | Found multiplier for basic radial grid :   2
  | Found angular grid specification: user-specified.
  | Specified grid contains     6 separate shells.
  | Check grid settings after all constraints further below.
  | Found free-atom valence shell :  5 s   1.000
  | Found free-atom valence shell :  4 p   6.000
  | Found free-atom valence shell :  4 d   9.000
  | Found free-ion valence shell :  5 s   0.000
  | Found free-ion valence shell :  4 p   6.000
  | Found free-ion valence shell :  4 d   8.000
  | Found ionic basis function :  5 p , default cutoff radius.
  | Found hydrogenic basis function :  4 f   8.000
  | Found hydrogenic basis function :  5 g  10.000
  | Found hydrogenic basis function :  3 s   2.600
  | Found hydrogenic basis function :  3 d   2.500
  Species Pd                  : Missing cutoff potential type.
  Defaulting to exp(1/x)/(1-x)^2 type cutoff potential.
  Species Pd: No 'logarithmic' tag. Using default grid for free atom:
  | Default logarithmic grid data [bohr] : 0.1000E-03 0.1000E+03 0.1012E+01
  | Will include ionic basis functions of  2.0-fold positive Pd                   ion.
  Species Pd: On-site basis accuracy parameter (for Gram-Schmidt orthonormalisation) not specified.
  Using default value basis_acc =  0.1000000E-03.
  Species Pd                  : Using default innermost maximum threshold i_radial=  2 for radial functions.
  Species Pd                  : Default cutoff onset for free atom density etc. : 0.40000000E+01 AA.
  Species Pd                  : Basic radial grid will be enhanced according to radial_multiplier =   2, to contain   125 grid points.
 
  Reading configuration options for species Se                  .
  | Found nuclear charge :  34.0000
  | Found atomic mass :    78.9600000000000      amu
  | Found l_max for Hartree potential  :   6
  | Found cutoff potl. onset [A], width [A], scale factor :    4.00000    2.00000    1.00000
  | Threshold for basis-dependent cutoff potential is   0.100000E-03
  | Found data for basic radial integration grid :    55 points, outermost radius =    7.000 A
  | Found multiplier for basic radial grid :   2
  | Found angular grid specification: user-specified.
  | Specified grid contains     5 separate shells.
  | Check grid settings after all constraints further below.
  | Found free-atom valence shell :  4 s   2.000
  | Found free-atom valence shell :  4 p   4.000
  | Found free-atom valence shell :  3 d  10.000
  | Found free-ion valence shell :  4 s   1.000
  | Found free-ion valence shell :  4 p   3.000
  | Found free-ion valence shell :  3 d  10.000
  | Found hydrogenic basis function :  3 d   4.300
  | Found hydrogenic basis function :  2 p   1.600
  | Found hydrogenic basis function :  4 f   7.200
  | Found ionic basis function :  4 s , default cutoff radius.
  Species Se                  : Missing cutoff potential type.
  Defaulting to exp(1/x)/(1-x)^2 type cutoff potential.
  Species Se: No 'logarithmic' tag. Using default grid for free atom:
  | Default logarithmic grid data [bohr] : 0.1000E-03 0.1000E+03 0.1012E+01
  | Will include ionic basis functions of  2.0-fold positive Se                   ion.
  Species Se: On-site basis accuracy parameter (for Gram-Schmidt orthonormalisation) not specified.
  Using default value basis_acc =  0.1000000E-03.
  Species Se                  : Using default innermost maximum threshold i_radial=  2 for radial functions.
  Species Se                  : Default cutoff onset for free atom density etc. : 0.40000000E+01 AA.
  Species Se                  : Basic radial grid will be enhanced according to radial_multiplier =   2, to contain   111 grid points.
 
  Finished reading input file 'control.in'. Consistency checks are next.
 
  MPI_IN_PLACE appears to work with this MPI implementation.
  | Keeping use_mpi_in_place .true. (see manual).
  Target number of points in a grid batch is not set. Defaulting to  100
  Method for grid partitioning is not set. Defaulting to parallel hash+maxmin partitioning.
  Batch size limit is not set. Defaulting to    200
  By default, will store active basis functions for each batch.
  If in need of memory, prune_basis_once .false. can be used to disable this option.
  communication_type for Hartree potential was not specified.
  Defaulting to calc_hartree .
  Defaulting to Pulay charge density mixer.
  Pulay mixer: Number of relevant iterations not set.
  Defaulting to    8 iterations.
  Pulay mixer: Number of initial linear mixing iterations not set.
  Defaulting to    0 iterations.
  Work space size for distributed Hartree potential not set.
  Defaulting to   0.200000E+03 MB.
  Mixing parameter for charge density mixing has not been set.
  Using default: charge_mix_param =     0.0500.
  The mixing parameter will be adjusted in iteration number     3 of each s.c.f. cycle (i.e., each geometry step).
  Algorithm-dependent basis array size parameters:
  | n_max_pulay                         :        8
  Maximum number of self-consistency iterations not provided.
  Presetting  1000 iterations.
  Presetting      1001 iterations before the initial mixing cycle
  is restarted anyway using the sc_init_iter criterion / keyword.
  Presetting a factor      1.000 between actual scf density residual
  and density convergence criterion sc_accuracy_rho below which sc_init_iter
  takes no effect.
 * No s.c.f. convergence criteria (sc_accuracy_*) were provided in control.in.
 * The run will proceed with a reasonable default guess, but please check whether.
 * the s.c.f. cycles seem to take too much or too little time.
  No maximum number of relaxation steps, defaulting to     1000
  Using explicit Hessian from geometry.in.
  Maximum energy tolerance by which TRM/BFGS trajectory may increase over multiple steps:   0.300000E-02
  No trust radius initializer. Defaulting to   0.200000E+00 A.
  Unit cell relaxation: Unit cell will be relaxed fully.
  Unit cell relaxation: Analytical stress will be used.
  Analytical stress will be computed.
  Analytical stress calculation: Only the upper triangle is calculated.
                                 Final output is symmetrized.
  Analytical stress calculation: scf convergence accuracy of stress not set.
                                 Analytical stress self-consistency will not be checked explicitly.
                                 Be sure to set other criteria like sc_accuracy_rho tight enough.
 * Notice: The s.c.f. convergence criterion sc_accuracy_rho was not provided.
 * We used to stop in this case, and ask the user to provide reasonable
 * scf convergence criteria. However, this led some users to employ criteria
 * that led to extremely long run times, e.g., for simple relaxation.
 * We now preset a default value for sc_accuracy_rho if it is not set.
 * You may still wish to check if this setting is too tight or too loose for your needs.
 * Based on n_atoms, FHI-aims chose sc_accuracy_rho =  0.141421E-05 .
  Force calculation: scf convergence accuracy of forces not set.
  Defaulting to 'sc_accuracy_forces not_checked'.
  Handling of forces: Unphysical translation and rotation will be removed from forces.
  No accuracy limit for integral partition fn. given. Defaulting to  0.1000E-14.
  No threshold value for u(r) in integrations given. Defaulting to  0.1000E-05.
  No occupation type (smearing scheme) given. Defaulting to Gaussian broadening, width =  0.1000E-01 eV.
  The width will be adjusted in iteration number     3 of each s.c.f. cycle (i.e., each geometry step).
  S.C.F. convergence parameters will be adjusted in iteration number     3 of the first full s.c.f. cycle only.
  No accuracy for occupation numbers given. Defaulting to  0.1000E-12.
  No threshold value for occupation numbers given. Defaulting to  0.0000E+00.
  No accuracy for fermi level given. Defaulting to  0.1000E-19.
  Maximum # of iterations to find E_F not set. Defaulting to  200.
  Preferred method for the eigenvalue solver ('KS_method') not specified in 'control.in'.
  Defaulting to serial version, LAPACK (via ELSI), since more k-points than CPUs available.
  Will not use alltoall communication since running on < 1024 CPUs.
  Threshold for basis singularities not set.
  Default threshold for basis singularities:  0.1000E-04
  partition_type (choice of integration weights) for integrals was not specified.
  | Using a version of the partition function of Stratmann and coworkers ('stratmann_sparse').
  | At each grid point, the set of atoms used to build the partition table is smoothly restricted to
  | only those atoms whose free-atom density would be non-zero at that grid point.
  Partitioning for Hartree potential was not defined. Using partition_type for integrals.
  | Adjusted default value of keyword multip_moments_threshold to:       0.10000000E-11
  | This value may affect high angular momentum components of the Hartree potential in periodic systems.
  Angular momentum expansion for Kerker preconditioner not set explicitly.
  | Using default value of   0
  No explicit requirement for turning off preconditioner.
  | By default, it will be turned off when the charge convergence reaches
  | sc_accuracy_rho  =   0.141421E-05
  No special mixing parameter while Kerker preconditioner is on.
  Using default: charge_mix_param =     0.0500.
  No q(lm)/r^(l+1) cutoff set for long-range Hartree potential.
  | Using default value of  0.100000E-09 .
  | Verify using the multipole_threshold keyword.
  Defaulting to new monopole extrapolation.
  Density update method: automatic selection selected.
  Using density matrix based charge density update.
  Using density matrix based charge density update.
  Using packed matrix style: index .
  Geometry relaxation: A file "geometry.in.next_step" is written out by default after each step.
  | This file contains the geometry of the current relaxation step as well as
  | the current Hessian matrix needed to restart the relaxation algorithm.
  | If you do not want part or all of this information, use the keywords
  | "write_restart_geometry" or "hessian_to_restart_geometry" to switch the output off.
  Defaulting to use time-reversal symmetry for k-point grid.
  Charge integration errors on the 3D integration grid will be compensated
  by explicit normalization and distribution of residual charges.
  Use the "compensate_multipole_errors" flag to change this behaviour.
------------------------------------------------------------


------------------------------------------------------------
          Reading geometry description geometry.in.
------------------------------------------------------------
  Input structure read successfully.
  The structure contains       12 atoms,  and a total of        456.000 electrons.

  Input geometry:
  | Unit cell:
  |        5.85088863        0.00000000        0.00000000
  |        0.00000000        5.95703911        0.00000000
  |        0.00000000        0.00000000        7.44938335
  | Atomic structure:
  |       Atom                x [A]            y [A]            z [A]
  |    1: Species Pd            2.93867692        0.01014114        0.01194538
  |    2: Species Pd            0.00990474        0.01007830        3.74237517
  |    3: Species Pd            0.01023993        2.99203500        0.01198561
  |    4: Species Pd            2.93901136        2.99198181        3.74235178
  |    5: Species Se            3.59307693        0.71338998        3.01125246
  |    6: Species Se            5.21322702        5.27086606        6.73962659
  |    7: Species Se            0.66420984        2.28910326        4.47278266
  |    8: Species Se            2.28434630        3.69533466        0.74309431
  |    9: Species Se            2.28449579        5.27095864        4.47280032
  |   10: Species Se            0.66426982        0.71330307        0.74312761
  |   11: Species Se            5.21323451        3.69532846        3.01130334
  |   12: Species Se            3.59317815        2.28888690        6.73961713

  Lattice parameters for 3D lattice (in Angstroms) :     5.850889    5.957039    7.449383
  Angle(s) between unit vectors (in degrees)       :    90.000000   90.000000   90.000000

  | The smallest distance between any two atoms is         2.40092313 AA.
  | The first atom of this pair is atom number                      6 .
  | The second atom of this pair is atom number                    10 .
  | Wigner-Seitz cell of the first atom image           0     0     0 .
  | (The Wigner-Seitz cell of the second atom is 0 0 0  by definition.)

  Symmetry information by spglib:
  | Precision set to  0.1E-04
  | Number of Operations  : 1
  | Space group           : 1
  | International         : P1
  | Schoenflies           : C1^1

  Quantities derived from the lattice vectors:
  | Reciprocal lattice vector 1:  1.073886  0.000000  0.000000
  | Reciprocal lattice vector 2:  0.000000  1.054750  0.000000
  | Reciprocal lattice vector 3:  0.000000  0.000000  0.843450
  | Unit cell volume                               :   0.259641E+03  A^3

  Range separation radius for Ewald summation (hartree_convergence_parameter):      4.00082228 bohr.

  Fractional coordinates:
                         L1                L2                L3
       atom_frac         0.50226164        0.00170238        0.00160354  Pd
       atom_frac         0.00169286        0.00169183        0.50237382  Pd
       atom_frac         0.00175015        0.50226882        0.00160894  Pd
       atom_frac         0.50231880        0.50225989        0.50237068  Pd
       atom_frac         0.61410790        0.11975580        0.40422842  Se
       atom_frac         0.89101457        0.88481307        0.90472275  Se
       atom_frac         0.11352290        0.38426863        0.60042321  Se
       atom_frac         0.39042724        0.62033077        0.09975246  Se
       atom_frac         0.39045279        0.88482861        0.60042558  Se
       atom_frac         0.11353315        0.11974121        0.09975693  Se
       atom_frac         0.89101585        0.62032973        0.40423525  Se
       atom_frac         0.61412520        0.38423231        0.90472148  Se

  Number of empty states per atom not set in control.in - providing a guess from actual geometry.
  | Total number of empty states used during s.c.f. cycle:       66
  If you use a very high smearing, use empty_states (per atom!) in control.in to increase this value.

  Structure-dependent array size parameters: 
  | Maximum number of distinct radial functions  :       27
  | Maximum number of basis functions            :      468
  | Number of Kohn-Sham states (occupied + empty):      294
------------------------------------------------------------

------------------------------------------------------------
          Preparing all fixed parts of the calculation.
------------------------------------------------------------
  Determining machine precision:
    2.225073858507201E-308
  Setting up grids for atomic and cluster calculations.

  Creating wave function, potential, and density for free atoms.

  Species: Pd

  List of occupied orbitals and eigenvalues:
    n    l              occ      energy [Ha]    energy [eV]
    1    0           2.0000      -913.269104    -24851.3168
    2    0           2.0000      -130.434372     -3549.2998
    3    0           2.0000       -23.521804      -640.0609
    4    0           2.0000        -3.256918       -88.6253
    5    0           1.0000        -0.157260        -4.2793
    2    1           6.0000      -116.910756     -3181.3035
    3    1           6.0000       -19.103344      -519.8284
    4    1           6.0000        -1.998052       -54.3697
    3    2          10.0000       -12.098182      -329.2083
    4    2           9.0000        -0.243389        -6.6230


  Species: Se

  List of occupied orbitals and eigenvalues:
    n    l              occ      energy [Ha]    energy [eV]
    1    0           2.0000      -466.337810    -12689.6975
    2    0           2.0000       -59.202598     -1610.9847
    3    0           2.0000        -7.847116      -213.5309
    4    0           2.0000        -0.634372       -17.2621
    2    1           6.0000       -52.061107     -1416.6548
    3    1           6.0000        -5.620941      -152.9536
    4    1           4.0000        -0.238469        -6.4891
    3    2          10.0000        -1.951949       -53.1152

  Creating fixed part of basis set: Ionic, confined, hydrogenic.
 
  Pd                   ion:

  List of free ionic orbitals and eigenvalues:
    n    l      energy [Ha]    energy [eV]
    1    0      -914.099884    -24873.9234
    2    0      -131.248265     -3571.4470
    3    0       -24.332473      -662.1203
    4    0        -4.059276      -110.4585
    2    1      -117.724296     -3203.4411
    3    1       -19.913908      -541.8850
    4    1        -2.795328       -76.0648
    3    2       -12.908733      -351.2645
    4    2        -1.004248       -27.3270


  List of ionic basis orbitals and eigenvalues:
    n    l      energy [Ha]    energy [eV]    outer radius [A]
    5    1        -0.516938       -14.0666       5.427025

 
  Pd                   hydrogenic:
 
  List of hydrogenic basis orbitals: 
    n    l      effective z      eigenvalue [eV]  inner max. [A]     outer max. [A]     outer radius [A]   
    4    3         8.000000       -54.4226           1.054686           1.054686           4.629581
    5    4        10.000000       -54.4226           1.330451           1.330451           5.043202
    3    0         2.600000        -9.8948           0.150992           2.606197           5.493778
    3    2         2.500000        -9.3396           1.873517           1.873517           5.493778
 
 
  Se                   ion:

  List of free ionic orbitals and eigenvalues:
    n    l      energy [Ha]    energy [eV]
    1    0      -467.261007    -12714.8189
    2    0       -60.104893     -1635.5374
    3    0        -8.743714      -237.9286
    4    0        -1.414053       -38.4783
    2    1       -52.964156     -1441.2280
    3    1        -6.516916      -177.3343
    4    1        -0.961869       -26.1738
    3    2        -2.844511       -77.4031


  List of ionic basis orbitals and eigenvalues:
    n    l      energy [Ha]    energy [eV]    outer radius [A]
    4    0        -1.414046       -38.4782       4.083166

 
  Se                   hydrogenic:
 
  List of hydrogenic basis orbitals: 
    n    l      effective z      eigenvalue [eV]  inner max. [A]     outer max. [A]     outer radius [A]   
    3    2         4.300000       -27.9518           1.103845           1.103845           5.278265
    2    1         1.600000        -8.6828           1.326010           1.326010           5.475439
    4    3         7.200000       -44.0822           1.173422           1.173422           4.965294
 

  Adding cutoff potential to free-atom effective potential.
  Creating atomic-like basis functions for current effective potential.

  Species Pd                  :

  List of atomic basis orbitals and eigenvalues:
    n    l      energy [Ha]    energy [eV]    outer radius [A]
    1    0      -913.269104    -24851.3168       0.223280
    2    0      -130.434372     -3549.2998       0.615909
    3    0       -23.521804      -640.0609       1.414312
    4    0        -3.256918       -88.6253       3.581357
    5    0        -0.157260        -4.2793       5.427025
    2    1      -116.910756     -3181.3035       0.631154
    3    1       -19.103344      -519.8284       1.540671
    4    1        -1.998052       -54.3697       4.408641
    3    2       -12.098182      -329.2083       1.806051
    4    2        -0.243389        -6.6230       5.361084


  Species Se                  :

  List of atomic basis orbitals and eigenvalues:
    n    l      energy [Ha]    energy [eV]    outer radius [A]
    1    0      -466.337810    -12689.6975       0.309561
    2    0       -59.202598     -1610.9847       0.885812
    3    0        -7.847116      -213.5309       2.355489
    4    0        -0.634372       -17.2621       5.214131
    2    1       -52.061107     -1416.6548       0.907737
    3    1        -5.620941      -152.9536       2.694529
    4    1        -0.238469        -6.4891       5.408909
    3    2        -1.951949       -53.1152       4.083166

  Assembling full basis from fixed parts.
  | Species Pd :   atomic orbital   1 s accepted.
  | Species Pd :   atomic orbital   2 s accepted.
  | Species Pd :   atomic orbital   3 s accepted.
  | Species Pd :   atomic orbital   4 s accepted.
  | Species Pd :   atomic orbital   5 s accepted.
  | Species Pd :    hydro orbital   3 s accepted.
  | Species Pd :   atomic orbital   2 p accepted.
  | Species Pd :   atomic orbital   3 p accepted.
  | Species Pd :   atomic orbital   4 p accepted.
  | Species Pd :    ionic orbital   5 p accepted.
  | Species Pd :   atomic orbital   3 d accepted.
  | Species Pd :   atomic orbital   4 d accepted.
  | Species Pd :    hydro orbital   3 d accepted.
  | Species Pd :    hydro orbital   4 f accepted.
  | Species Pd :    hydro orbital   5 g accepted.
  | Species Se :   atomic orbital   1 s accepted.
  | Species Se :   atomic orbital   2 s accepted.
  | Species Se :   atomic orbital   3 s accepted.
  | Species Se :    ionic orbital   4 s accepted.
  | Species Se :   atomic orbital   4 s accepted.
  | Species Se :   atomic orbital   2 p accepted.
  | Species Se :   atomic orbital   3 p accepted.
  | Species Se :   atomic orbital   4 p accepted.
  | Species Se :    hydro orbital   2 p accepted.
  | Species Se :   atomic orbital   3 d accepted.
  | Species Se :    hydro orbital   3 d accepted.
  | Species Se :    hydro orbital   4 f accepted.
 
  Basis size parameters after reduction:
  | Total number of radial functions:       27
  | Total number of basis functions :      468
 
  Per-task memory consumption for arrays in subroutine allocate_ext:
  |           9.993344MB.
  Testing on-site integration grid accuracy.
  |  Species  Function  <phi|h_atom|phi> (log., in eV)  <phi|h_atom|phi> (rad., in eV)
           1        1             -24851.3167505682             -24851.3148165635
           1        2              -3549.2998457785              -3549.2998098031
           1        3               -640.0608571327               -640.0608534886
           1        4                -88.6252603131                -88.6252593316
           1        5                 -4.2849374515                 -4.2849400622
           1        6                  4.9432123540                  4.9432188418
           1        7              -3181.3035399559              -3181.3035364574
           1        8               -519.8284281886               -519.8284264063
           1        9                -54.3697495804                -54.3697489261
           1       10                  0.8628369484                  0.8628370487
           1       11               -329.2082917394               -329.2082912864
           1       12                 -6.6230267036                 -6.6230265076
           1       13                  5.4924295291                  5.4924115607
           1       14                 25.0740861942                 25.0740861175
           1       15                 38.8271273823                 38.8271278029
           2       16             -12689.6974611609             -12689.6967666984
           2       17              -1610.9846578580              -1610.9846472470
           2       18               -213.5308789869               -213.5308777267
           2       19                -17.0464428502                -17.0464426496
           2       20                  6.7356859379                  6.7356842047
           2       21              -1416.6548010133              -1416.6548002108
           2       22               -152.9535734377               -152.9535727493
           2       23                 -6.4896265677                 -6.4896303794
           2       24                  5.2703037283                  5.2701679583
           2       25                -53.1152220964                -53.1152219035
           2       26                  7.6186674138                  7.6186665630
           2       27                 23.1072799052                 23.1072803137

  Preparing densities etc. for the partition functions (integrals / Hartree potential).

  Preparations completed.
  max(cpu_time)          :      0.556 s.
  Wall clock time (cpu1) :      0.625 s.
------------------------------------------------------------

------------------------------------------------------------
          Begin self-consistency loop: Initialization.

          Date     :  20200420, Time     :  204646.634
------------------------------------------------------------

  Initializing index lists of integration centers etc. from given atomic structure:
  Mapping all atomic coordinates to central unit cell.

  Initializing the k-points
  Using symmetry for reducing the k-points
  | k-points reduced from:     3328 to     1666
  | Number of k-points                             :      1666
  The eigenvectors in the calculations are COMPLEX.
  | K-points in task   0:        69
  | K-points in task   1:        70
  | K-points in task   2:        70
  | K-points in task   3:        70
  | K-points in task   4:        70
  | K-points in task   5:        70
  | K-points in task   6:        70
  | K-points in task   7:        70
  | K-points in task   8:        70
  | K-points in task   9:        70
  | K-points in task  10:        70
  | K-points in task  11:        69
  | K-points in task  12:        69
  | K-points in task  13:        69
  | K-points in task  14:        69
  | K-points in task  15:        69
  | K-points in task  16:        69
  | K-points in task  17:        69
  | K-points in task  18:        69
  | K-points in task  19:        69
  | K-points in task  20:        69
  | K-points in task  21:        69
  | K-points in task  22:        69
  | K-points in task  23:        69
  | Number of basis functions in the Hamiltonian integrals :      5582
  | Number of basis functions in a single unit cell        :       468
  | Number of centers in hartree potential         :      1318
  | Number of centers in hartree multipole         :       766
  | Number of centers in electron density summation:       595
  | Number of centers in basis integrals           :       640
  | Number of centers in integrals                 :       236
  | Number of centers in hamiltonian               :       596
  | Consuming       2238 KiB for k_phase.
  | Number of super-cells (origin) [n_cells]                     :         567
  | Number of super-cells (after PM_index) [n_cells]             :          86
  | Number of super-cells in hamiltonian [n_cells_in_hamiltonian]:          86
  | Size of matrix packed + index [n_hamiltonian_matrix_size] :     1292370

  Initializing relaxation algorithms.
  | Estimated reciprocal-space cutoff momentum G_max:         2.42762064 bohr^-1 .
  | Reciprocal lattice points for long-range Hartree potential:     418
  Partitioning the integration grid into batches with parallel hashing+maxmin method.
  | Number of batches:     4182
  | Maximal batch size:     110
  | Minimal batch size:      50
  | Average batch size:      91.855
  | Standard deviation of batch sizes:      11.405

  Integration load balanced across    24 MPI tasks.
  Work distribution over tasks is as follows:
  Task     0 has      16029 integration points.
  Task     1 has      15986 integration points.
  Task     2 has      16041 integration points.
  Task     3 has      16026 integration points.
  Task     4 has      15967 integration points.
  Task     5 has      16032 integration points.
  Task     6 has      16029 integration points.
  Task     7 has      15986 integration points.
  Task     8 has      16024 integration points.
  Task     9 has      16038 integration points.
  Task    10 has      15967 integration points.
  Task    11 has      15973 integration points.
  Task    12 has      15991 integration points.
  Task    13 has      15986 integration points.
  Task    14 has      16031 integration points.
  Task    15 has      16030 integration points.
  Task    16 has      15990 integration points.
  Task    17 has      16001 integration points.
  Task    18 has      16038 integration points.
  Task    19 has      16035 integration points.
  Task    20 has      15991 integration points.
  Task    21 has      16003 integration points.
  Task    22 has      15967 integration points.
  Task    23 has      15975 integration points.
  Initializing partition tables, free-atom densities, potentials, etc. across the integration grid (initialize_grid_storage).
  | initialize_grid_storage: Actual outermost partition radius vs. multipole_radius_free
  | (-- VB: in principle, multipole_radius_free should be larger, hence this output)
  | Species        1: Confinement radius =              6.000000000000000 AA, multipole_radius_free =              6.058219618167466 AA.
  | Species        1: outer_partition_radius set to              6.058219618167466 AA .
  | Species        2: Confinement radius =              6.000000000000000 AA, multipole_radius_free =              6.037996416842453 AA.
  | Species        2: outer_partition_radius set to              6.037996416842453 AA .
  | The sparse table of interatomic distances needs       2897.83 kbyte instead of      3276.80 kbyte of memory.
  | Net number of integration points:   384136
  | of which are non-zero points    :   322165
  | Numerical average free-atom electrostatic potential    :    -17.05603002 eV
  Renormalizing the initial density to the exact electron count on the 3D integration grid.
  | Initial density: Formal number of electrons (from input files) :     456.0000000000
  | Integrated number of electrons on 3D grid     :     456.0000484272
  | Charge integration error                      :       0.0000484272
  | Normalization factor for density and gradient :       0.9999998938
  Renormalizing the free-atom superposition density to the exact electron count on the 3D integration grid.
  | Formal number of electrons (from input files) :     456.0000000000
  | Integrated number of electrons on 3D grid     :     456.0000484272
  | Charge integration error                      :       0.0000484272
  | Normalization factor for density and gradient :       0.9999998938
  Obtaining max. number of non-zero basis functions in each batch (get_n_compute_maxes).
  | Maximal number of non-zero basis functions:     1012 in task     0
  | Maximal number of non-zero basis functions:     1018 in task     1
  | Maximal number of non-zero basis functions:     1030 in task     2
  | Maximal number of non-zero basis functions:     1016 in task     3
  | Maximal number of non-zero basis functions:     1037 in task     4
  | Maximal number of non-zero basis functions:     1040 in task     5
  | Maximal number of non-zero basis functions:     1014 in task     6
  | Maximal number of non-zero basis functions:     1013 in task     7
  | Maximal number of non-zero basis functions:     1059 in task     8
  | Maximal number of non-zero basis functions:     1022 in task     9
  | Maximal number of non-zero basis functions:     1042 in task    10
  | Maximal number of non-zero basis functions:     1014 in task    11
  | Maximal number of non-zero basis functions:     1007 in task    12
  | Maximal number of non-zero basis functions:     1029 in task    13
  | Maximal number of non-zero basis functions:     1039 in task    14
  | Maximal number of non-zero basis functions:     1025 in task    15
  | Maximal number of non-zero basis functions:     1022 in task    16
  | Maximal number of non-zero basis functions:     1004 in task    17
  | Maximal number of non-zero basis functions:     1020 in task    18
  | Maximal number of non-zero basis functions:     1026 in task    19
  | Maximal number of non-zero basis functions:     1027 in task    20
  | Maximal number of non-zero basis functions:     1031 in task    21
  | Maximal number of non-zero basis functions:     1026 in task    22
  | Maximal number of non-zero basis functions:     1016 in task    23
  Allocating      144.865 MB for KS_eigenvector_complex
  Integrating Hamiltonian matrix: batch-based integration.
  Time summed over all CPUs for integration: real work       63.808 s, elapsed       64.685 s
  Integrating overlap matrix.
  Time summed over all CPUs for integration: real work       46.131 s, elapsed       46.700 s
  Decreasing sparse matrix size:
  | Tolerance:  0.1000E-12
  Hamiltonian matrix
  | Array has  1117855 nonzero elements out of  1292370 elements
  | Sparsity factor is 0.135
  Overlap matrix
  | Array has  1031019 nonzero elements out of  1292370 elements
  | Sparsity factor is 0.202
  New size of hamiltonian matrix:     1117932

  Updating Kohn-Sham eigenvalues and eigenvectors using ELSI and the (modified) LAPACK eigensolver.
  Singularity check in k-point 24, task 0 (analysis for other k-points/tasks may follow below):
  Overlap matrix is not singular
  | Lowest and highest eigenvalues :  0.6137E-03,  0.7284E+01
  Finished singularity check of overlap matrix
  | Time :     0.075 s
  Starting LAPACK eigensolver
  Finished Cholesky decomposition
  | Time :     0.019 s
  Finished transformation to standard eigenproblem
  | Time :     0.020 s
  Finished solving standard eigenproblem
  | Time :     0.072 s
  Finished back-transformation of eigenvectors
  | Time :     0.008 s

  Obtaining occupation numbers and chemical potential using ELSI.
  | Chemical potential (Fermi level):    -4.64015254 eV
  Writing Kohn-Sham eigenvalues.
  K-point:       1 at    0.000000    0.000000    0.000000 (in units of recip. lattice)

  State    Occupation    Eigenvalue [Ha]    Eigenvalue [eV]
      1       2.00000        -913.279535       -24851.60058
      2       2.00000        -913.279520       -24851.60017
      3       2.00000        -913.279516       -24851.60008
      4       2.00000        -913.279396       -24851.59679
      5       2.00000        -466.350396       -12690.03993
      6       2.00000        -466.350332       -12690.03819
      7       2.00000        -466.350279       -12690.03675
      8       2.00000        -466.350273       -12690.03660
      9       2.00000        -466.350268       -12690.03647
     10       2.00000        -466.350250       -12690.03596
     11       2.00000        -466.350219       -12690.03511
     12       2.00000        -466.350187       -12690.03426
     13       2.00000        -130.445120        -3549.59231
     14       2.00000        -130.445104        -3549.59189
     15       2.00000        -130.445101        -3549.59179
     16       2.00000        -130.444979        -3549.58848
     17       2.00000        -116.921528        -3181.59665
     18       2.00000        -116.921519        -3181.59641
     19       2.00000        -116.921512        -3181.59623
     20       2.00000        -116.921509        -3181.59613
     21       2.00000        -116.921503        -3181.59598
     22       2.00000        -116.921500        -3181.59590
     23       2.00000        -116.921465        -3181.59493
     24       2.00000        -116.921449        -3181.59452
     25       2.00000        -116.921446        -3181.59442
     26       2.00000        -116.921387        -3181.59282
     27       2.00000        -116.921378        -3181.59258
     28       2.00000        -116.921325        -3181.59113
     29       2.00000         -59.215611        -1611.33877
     30       2.00000         -59.215546        -1611.33699
     31       2.00000         -59.215492        -1611.33552
     32       2.00000         -59.215487        -1611.33539
     33       2.00000         -59.215482        -1611.33524
     34       2.00000         -59.215462        -1611.33472
     35       2.00000         -59.215431        -1611.33386
     36       2.00000         -59.215399        -1611.33300
     37       2.00000         -52.074127        -1417.00908
     38       2.00000         -52.074103        -1417.00845
     39       2.00000         -52.074063        -1417.00734
     40       2.00000         -52.074053        -1417.00708
     41       2.00000         -52.074037        -1417.00664
     42       2.00000         -52.074009        -1417.00587
     43       2.00000         -52.074002        -1417.00570
     44       2.00000         -52.073998        -1417.00559
     45       2.00000         -52.073988        -1417.00532
     46       2.00000         -52.073982        -1417.00516
     47       2.00000         -52.073980        -1417.00508
     48       2.00000         -52.073979        -1417.00506
     49       2.00000         -52.073973        -1417.00489
     50       2.00000         -52.073954        -1417.00437
     51       2.00000         -52.073947        -1417.00419
     52       2.00000         -52.073935        -1417.00388
     53       2.00000         -52.073930        -1417.00373
     54       2.00000         -52.073925        -1417.00359
     55       2.00000         -52.073922        -1417.00353
     56       2.00000         -52.073915        -1417.00334
     57       2.00000         -52.073906        -1417.00308
     58       2.00000         -52.073891        -1417.00266
     59       2.00000         -52.073875        -1417.00224
     60       2.00000         -52.073843        -1417.00137
     61       2.00000         -23.533316         -640.37410
     62       2.00000         -23.533299         -640.37366
     63       2.00000         -23.533296         -640.37356
     64       2.00000         -23.533166         -640.37003
     65       2.00000         -19.115112         -520.14867
     66       2.00000         -19.115096         -520.14822
     67       2.00000         -19.115089         -520.14804
     68       2.00000         -19.115024         -520.14627
     69       2.00000         -19.115006         -520.14578
     70       2.00000         -19.115006         -520.14577
     71       2.00000         -19.114959         -520.14449
     72       2.00000         -19.114872         -520.14213
     73       2.00000         -19.114486         -520.13163
     74       2.00000         -19.114471         -520.13123
     75       2.00000         -19.114468         -520.13113
     76       2.00000         -19.114342         -520.12771
     77       2.00000         -12.109919         -329.52767
     78       2.00000         -12.109902         -329.52719
     79       2.00000         -12.109898         -329.52709
     80       2.00000         -12.109883         -329.52669
     81       2.00000         -12.109866         -329.52623
     82       2.00000         -12.109862         -329.52612
     83       2.00000         -12.109766         -329.52350
     84       2.00000         -12.109731         -329.52254
     85       2.00000         -12.109537         -329.51726
     86       2.00000         -12.109522         -329.51685
     87       2.00000         -12.109516         -329.51669
     88       2.00000         -12.109480         -329.51573
     89       2.00000         -12.109464         -329.51528
     90       2.00000         -12.109462         -329.51524
     91       2.00000         -12.109397         -329.51345
     92       2.00000         -12.109389         -329.51324
     93       2.00000         -12.109381         -329.51303
     94       2.00000         -12.109378         -329.51294
     95       2.00000         -12.109334         -329.51174
     96       2.00000         -12.109251         -329.50949
     97       2.00000          -7.861933         -213.93407
     98       2.00000          -7.861855         -213.93197
     99       2.00000          -7.861795         -213.93032
    100       2.00000          -7.861794         -213.93031
    101       2.00000          -7.861784         -213.93002
    102       2.00000          -7.861762         -213.92943
    103       2.00000          -7.861727         -213.92849
    104       2.00000          -7.861692         -213.92752
    105       2.00000          -5.636339         -153.37259
    106       2.00000          -5.636275         -153.37083
    107       2.00000          -5.636211         -153.36912
    108       2.00000          -5.636197         -153.36874
    109       2.00000          -5.636192         -153.36860
    110       2.00000          -5.636172         -153.36805
    111       2.00000          -5.636129         -153.36688
    112       2.00000          -5.636096         -153.36598
    113       2.00000          -5.636096         -153.36596
    114       2.00000          -5.636005         -153.36350
    115       2.00000          -5.635940         -153.36173
    116       2.00000          -5.635931         -153.36148
    117       2.00000          -5.635916         -153.36109
    118       2.00000          -5.635903         -153.36073
    119       2.00000          -5.635840         -153.35900
    120       2.00000          -5.635813         -153.35827
    121       2.00000          -5.635417         -153.34749
    122       2.00000          -5.635341         -153.34542
    123       2.00000          -5.635291         -153.34406
    124       2.00000          -5.635284         -153.34388
    125       2.00000          -5.635276         -153.34365
    126       2.00000          -5.635258         -153.34316
    127       2.00000          -5.635228         -153.34237
    128       2.00000          -5.635193         -153.34139
    129       2.00000          -3.273988          -89.08976
    130       2.00000          -3.273965          -89.08912
    131       2.00000          -3.273959          -89.08897
    132       2.00000          -3.273770          -89.08382
    133       2.00000          -2.020309          -54.97541
    134       2.00000          -2.020288          -54.97483
    135       2.00000          -2.020235          -54.97338
    136       2.00000          -2.020014          -54.96738
    137       2.00000          -2.019293          -54.94777
    138       2.00000          -2.019287          -54.94760
    139       2.00000          -2.019236          -54.94621
    140       2.00000          -2.019015          -54.94020
    141       2.00000          -2.013054          -54.77800
    142       2.00000          -2.013045          -54.77774
    143       2.00000          -2.013039          -54.77757
    144       2.00000          -2.012871          -54.77302
    145       2.00000          -1.969355          -53.58888
    146       2.00000          -1.969241          -53.58578
    147       2.00000          -1.969165          -53.58370
    148       2.00000          -1.969138          -53.58297
    149       2.00000          -1.968280          -53.55963
    150       2.00000          -1.968205          -53.55759
    151       2.00000          -1.968128          -53.55550
    152       2.00000          -1.968109          -53.55496
    153       2.00000          -1.967819          -53.54709
    154       2.00000          -1.967787          -53.54620
    155       2.00000          -1.967710          -53.54411
    156       2.00000          -1.967699          -53.54381
    157       2.00000          -1.967695          -53.54370
    158       2.00000          -1.967646          -53.54236
    159       2.00000          -1.967567          -53.54023
    160       2.00000          -1.967557          -53.53996
    161       2.00000          -1.967402          -53.53573
    162       2.00000          -1.967363          -53.53467
    163       2.00000          -1.967352          -53.53438
    164       2.00000          -1.967306          -53.53311
    165       2.00000          -1.967293          -53.53276
    166       2.00000          -1.967284          -53.53253
    167       2.00000          -1.967267          -53.53205
    168       2.00000          -1.967243          -53.53141
    169       2.00000          -1.967243          -53.53140
    170       2.00000          -1.967226          -53.53095
    171       2.00000          -1.967221          -53.53080
    172       2.00000          -1.967211          -53.53052
    173       2.00000          -1.967171          -53.52943
    174       2.00000          -1.967164          -53.52924
    175       2.00000          -1.967150          -53.52888
    176       2.00000          -1.967123          -53.52814
    177       2.00000          -1.966729          -53.51742
    178       2.00000          -1.966683          -53.51617
    179       2.00000          -1.966620          -53.51445
    180       2.00000          -1.966608          -53.51413
    181       2.00000          -1.966374          -53.50776
    182       2.00000          -1.966336          -53.50673
    183       2.00000          -1.966269          -53.50491
    184       2.00000          -1.966264          -53.50476
    185       2.00000          -0.759575          -20.66909
    186       2.00000          -0.740829          -20.15898
    187       2.00000          -0.720594          -19.60837
    188       2.00000          -0.718835          -19.56049
    189       2.00000          -0.652613          -17.75850
    190       2.00000          -0.640680          -17.43379
    191       2.00000          -0.639276          -17.39560
    192       2.00000          -0.627538          -17.07617
    193       2.00000          -0.418494          -11.38780
    194       2.00000          -0.410709          -11.17596
    195       2.00000          -0.389404          -10.59623
    196       2.00000          -0.376469          -10.24425
    197       2.00000          -0.370692          -10.08705
    198       2.00000          -0.369222          -10.04704
    199       2.00000          -0.366742           -9.97955
    200       2.00000          -0.366192           -9.96459
    201       2.00000          -0.364772           -9.92596
    202       2.00000          -0.363045           -9.87896
    203       2.00000          -0.361255           -9.83025
    204       2.00000          -0.351809           -9.57320
    205       2.00000          -0.341768           -9.29999
    206       2.00000          -0.330803           -9.00161
    207       2.00000          -0.324434           -8.82830
    208       2.00000          -0.316408           -8.60990
    209       2.00000          -0.316259           -8.60585
    210       2.00000          -0.306248           -8.33344
    211       2.00000          -0.288654           -7.85469
    212       2.00000          -0.286401           -7.79337
    213       2.00000          -0.285230           -7.76149
    214       2.00000          -0.280082           -7.62141
    215       2.00000          -0.279118           -7.59518
    216       2.00000          -0.277258           -7.54457
    217       2.00000          -0.276247           -7.51707
    218       2.00000          -0.275704           -7.50228
    219       2.00000          -0.273698           -7.44771
    220       2.00000          -0.270353           -7.35667
    221       2.00000          -0.265362           -7.22088
    222       2.00000          -0.263623           -7.17354
    223       2.00000          -0.263328           -7.16551
    224       2.00000          -0.257755           -7.01386
    225       2.00000          -0.224356           -6.10505
    226       2.00000          -0.215301           -5.85864
    227       2.00000          -0.213040           -5.79711
    228       0.00000          -0.165003           -4.48997
    229       0.00000          -0.152246           -4.14283
    230       0.00000          -0.135264           -3.68071
    231       0.00000          -0.129922           -3.53535
    232       0.00000          -0.128602           -3.49945
    233       0.00000          -0.125734           -3.42139
    234       0.00000          -0.115519           -3.14342
    235       0.00000          -0.114820           -3.12442
    236       0.00000          -0.081987           -2.23098
    237       0.00000          -0.037403           -1.01780
    238       0.00000          -0.030390           -0.82694
    239       0.00000          -0.003127           -0.08509
    240       0.00000           0.021286            0.57923
    241       0.00000           0.025478            0.69328
    242       0.00000           0.026812            0.72959
    243       0.00000           0.057108            1.55400
    244       0.00000           0.089416            2.43313
    245       0.00000           0.102688            2.79427
    246       0.00000           0.111323            3.02926
    247       0.00000           0.118867            3.23453
    248       0.00000           0.122553            3.33483
    249       0.00000           0.125253            3.40831
    250       0.00000           0.125726            3.42118
    251       0.00000           0.137255            3.73489
    252       0.00000           0.151535            4.12347
    253       0.00000           0.160546            4.36867
    254       0.00000           0.171325            4.66200
    255       0.00000           0.176827            4.81171
    256       0.00000           0.189450            5.15520
    257       0.00000           0.191784            5.21871
    258       0.00000           0.198257            5.39484
    259       0.00000           0.219954            5.98524
    260       0.00000           0.231554            6.30090
    261       0.00000           0.247722            6.74086
    262       0.00000           0.257748            7.01367
    263       0.00000           0.267095            7.26803
    264       0.00000           0.280580            7.63498
    265       0.00000           0.281012            7.64671
[...]
  |                x                y                z                |
  |                                                                   |
  |  x        -0.00015655      -0.00000080       0.00005007           |
  |  y        -0.00000080       0.00000235      -0.00001044           |
  |  z         0.00005007      -0.00001044      -0.00007756           |
  |                                                                   |
  |  Pressure:       0.00007725   [eV/A**3]                           |
  |                                                                   |
  +-------------------------------------------------------------------+

 * Warning: Stress tensor is anisotropic. Be aware that pressure is an isotropic quantity.


  Leaving Libmbd.

  Timings for VdW correction (Tkatchenko-Scheffler 2009 or later):
  | CPU time:       16.117 s, Wall clock time:       16.118 s.
  Removing unitary transformations (pure translations, rotations) from forces on atoms.
  Atomic forces before filtering:
  | Net force on center of mass :  -0.202523E-06  0.128744E-04  0.336507E-04 eV/A
  Atomic forces after filtering:
  | Net force on center of mass :   0.139380E-17  0.000000E+00 -0.139380E-17 eV/A

  Energy and forces in a compact form:
  | Total energy uncorrected      :         -0.108791111586979E+07 eV
  | Total energy corrected        :         -0.108791111679069E+07 eV  <-- do not rely on this value for anything but (periodic) metals
  | Electronic free energy        :         -0.108791111771159E+07 eV
  Total atomic forces (unitary forces cleaned) [eV/Ang]:
  |    1         -0.823370612688685E-04         -0.479045304718811E-03          0.791248781615888E-03
  |    2          0.179613114816881E-02         -0.153426918014369E-02         -0.250412274547608E-03
  |    3         -0.134390574320577E-03          0.499002702341602E-03          0.154170600075061E-02
  |    4          0.268449909376287E-03         -0.178696168901821E-02         -0.121727771587070E-02
  |    5          0.155457049537240E-02         -0.318747475375938E-04         -0.285768647506214E-02
  |    6          0.220121788794966E-02         -0.482867940442411E-03         -0.492430599998863E-02
  |    7         -0.395819641951697E-02          0.275732034100988E-02          0.277225683049506E-02
  |    8         -0.490722912754074E-02         -0.306760917989683E-02          0.398166310338412E-02
  |    9         -0.110418525317572E-02          0.235820728138494E-02          0.320016184868369E-02
  |   10         -0.144147621128010E-02          0.192272074658217E-02          0.370644671805062E-02
  |   11          0.133181919900493E-02         -0.178725869243160E-02         -0.226607929151476E-02
  |   12          0.447562600723089E-02          0.163263566287055E-02         -0.447772152599615E-02

  ------------------------------------ 
  Start decomposition of the XC Energy 
  ------------------------------------ 
  X and C from original XC functional choice 
  Hartree-Fock Energy :          0.000000000 Ha              0.000000000 eV
  X Energy            :      -1261.088561836 Ha         -34315.965744660 eV
  C Energy            :        -23.236946097 Ha           -632.309474862 eV
  Total XC Energy     :      -1284.325507933 Ha         -34948.275219521 eV
  ------------------------------------ 
  LDA X and C from self-consistent density 
  X Energy LDA        :      -1197.518492096 Ha         -32586.136134289 eV
  C Energy LDA        :        -42.068249331 Ha          -1144.735307787 eV
  ------------------------------------ 
  End decomposition of the XC Energy 
  ------------------------------------ 

------------------------------------------------------------
  Relaxation / MD: End force evaluation.       :  max(cpu_time)    wall_clock(cpu1)
  | Time for this force evaluation             :      496.027 s         496.305 s

------------------------------------------------------------
  Geometry optimization: Attempting to predict improved coordinates.

  +-------------------------------------------------------------------+
  | Generalized derivatives on lattice vectors [eV/A]                 |
  +-------------------------------------------------------------------+
  |lattice_vector      -0.00700218      -0.00003566       0.00223943  |
  |lattice_vector      -0.00003501       0.00010339      -0.00045843  |
  |lattice_vector       0.00174213      -0.00036326      -0.00269870  |
  +-------------------------------------------------------------------+
  | Forces on lattice vectors cleaned from atomic contributions [eV/A]|
  +-------------------------------------------------------------------+
  |lattice_vector       0.00700218       0.00003566      -0.00223943  |
  |lattice_vector       0.00003501      -0.00010339       0.00045843  |
  |lattice_vector      -0.00174213       0.00036326       0.00269870  |
  +-------------------------------------------------------------------+
  Symmetrized total atomic cartesian forces [eV/Ang]:
  |   1    -0.8233706127E-04    -0.4790453047E-03     0.7912487816E-03
  |   2     0.1796131148E-02    -0.1534269180E-02    -0.2504122745E-03
  |   3    -0.1343905743E-03     0.4990027023E-03     0.1541706001E-02
  |   4     0.2684499094E-03    -0.1786961689E-02    -0.1217277716E-02
  |   5     0.1554570495E-02    -0.3187474754E-04    -0.2857686475E-02
  |   6     0.2201217888E-02    -0.4828679404E-03    -0.4924306000E-02
  |   7    -0.3958196420E-02     0.2757320341E-02     0.2772256830E-02
  |   8    -0.4907229128E-02    -0.3067609180E-02     0.3981663103E-02
  |   9    -0.1104185253E-02     0.2358207281E-02     0.3200161849E-02
  |  10    -0.1441476211E-02     0.1922720747E-02     0.3706446718E-02
  |  11     0.1331819199E-02    -0.1787258692E-02    -0.2266079292E-02
  |  12     0.4475626007E-02     0.1632635663E-02    -0.4477721526E-02
  +-------------------------------------------------------------------+
  | Symmetrized forces on lattice vectors cleaned from symmetrized
  | atomic contributions [eV/A]|
  +-------------------------------------------------------------------+
  |lattice_vector       0.00700218       0.00000000       0.00000000  |
  |lattice_vector       0.00000000      -0.00010339       0.00000000  |
  |lattice_vector       0.00000000       0.00000000       0.00269870  |
  +-------------------------------------------------------------------+
  Removing unitary transformations (pure translations, rotations) from forces on atoms.
  Atomic forces before filtering:
  | Net force on center of mass :   0.278760E-17 -0.348449E-18 -0.278760E-17 eV/A
  Atomic forces after filtering:
  | Net force on center of mass :   0.000000E+00 -0.348449E-18  0.696899E-18 eV/A
  Net remaining forces (excluding translations, rotations) in present geometry:
  || Forces on atoms   || =   0.492431E-02 eV/A.
  || Forces on lattice || =   0.700218E-02 eV/A^3.
  Maximum force component is  0.700218E-02 eV/A.
  Present geometry is converged.

  Symmetry-reduced parameters:
  | atomic   1          0.502160459037948E+00
  | atomic   2          0.217791273817441E-02
  | atomic   3          0.209956785302105E-02
  | atomic   4          0.212983183556822E-02
  | atomic   5          0.221021534017666E-02
  | atomic   6          0.502254747516094E+00
  | atomic   7          0.222554224984518E-02
  | atomic   8          0.502137476522504E+00
  | atomic   9          0.206956553918248E-02
  | atomic  10          0.502227481401398E+00
  | atomic  11          0.502208645830855E+00
  | atomic  12          0.502276653121536E+00
  | atomic  13          0.614284125744392E+00
  | atomic  14          0.120567438659575E+00
  | atomic  15          0.405519486833953E+00
  | atomic  16          0.890000058972280E+00
  | atomic  17          0.883806450170719E+00
  | atomic  18          0.905487183446162E+00
  | atomic  19          0.114406962943422E+00
  | atomic  20          0.383807463935504E+00
  | atomic  21          0.598909261437135E+00
  | atomic  22          0.390101567324333E+00
  | atomic  23          0.620592406865725E+00
  | atomic  24          0.988478950751234E-01
  | atomic  25          0.390025566547614E+00
  | atomic  26          0.883816500335695E+00
  | atomic  27          0.598917895842004E+00
  | atomic  28          0.114350709515119E+00
  | atomic  29          0.120508656821966E+00
  | atomic  30          0.988426117314780E-01
  | atomic  31          0.890041519034962E+00
  | atomic  32          0.620582449451884E+00
  | atomic  33          0.405532420676586E+00
  | atomic  34          0.614269233775032E+00
  | atomic  35          0.383807435126147E+00
  | atomic  36          0.905465777900825E+00
  | lattice  1          0.584480867237988E+01
  | lattice  2          0.595337592681363E+01
  | lattice  3          0.751322495174597E+01
  Symmetry-reduced forces:
  | atomic   1         -0.481244369762556E-03
  | atomic   2         -0.285193678496607E-02
  | atomic   3          0.594483008907508E-02
  | atomic   4          0.104980429115487E-01
  | atomic   5         -0.913408120231951E-02
  | atomic   6         -0.188140374935455E-02
  | atomic   7         -0.785487194275023E-03
  | atomic   8          0.297075067553544E-02
  | atomic   9          0.115831839930960E-01
  | atomic  10          0.156903835842211E-02
  | atomic  11         -0.106384547015393E-01
  | atomic  12         -0.914568130808405E-02
  | atomic  13          0.908616711317849E-02
  | atomic  14         -0.189762354663573E-03
  | atomic  15         -0.214704413287039E-01
  | atomic  16          0.128656974012859E-01
  | atomic  17         -0.287469437245993E-02
  | atomic  18         -0.369974187091470E-01
  | atomic  19         -0.231349007597758E-01
  | atomic  20          0.164153645406818E-01
  | atomic  21          0.208285891915237E-01
  | atomic  22         -0.286818153620052E-01
  | atomic  23         -0.182626306444703E-01
  | atomic  24          0.299151305777918E-01
  | atomic  25         -0.645375154367542E-02
  | atomic  26          0.140392944594337E-01
  | atomic  27          0.240435358511558E-01
  | atomic  28         -0.842515266071919E-02
  | atomic  29          0.114466794066874E-01
  | atomic  30          0.278473679643749E-01
  | atomic  31          0.778422840438604E-02
  | atomic  32         -0.106402228745107E-01
  | atomic  33         -0.170255634756435E-01
  | atomic  34          0.261591777013920E-01
  | atomic  35          0.971969385259096E-02
  | atomic  36         -0.336421290960843E-01
  | lattice  1          0.700218387347247E-02
  | lattice  2         -0.103388578004457E-03
  | lattice  3          0.269870229372072E-02
------------------------------------------------------------
  Final atomic structure:
                         x [A]             y [A]             z [A]
  lattice_vector         5.84480867        0.00000000        0.00000000
  lattice_vector         0.00000000        5.95337593        0.00000000
  lattice_vector         0.00000000        0.00000000        7.51322495

            atom        -2.90977687        0.01296593        0.01577453  Pd
            atom         0.01244846        0.01315824       -3.73967205  Pd
            atom         0.01300787       -2.96396276        0.01554911  Pd
            atom        -2.90938513       -2.96353906       -3.73950747  Pd
            atom        -2.25443549        0.71778329        3.04675913  Se
            atom        -0.64292861       -0.69174388       -0.71009605  Se
            atom         0.66868681        2.28495012       -3.01348494  Se
            atom         2.28006902       -2.25875603        0.74266647  Se
            atom         2.27962481       -0.69168405       -3.01342007  Se
            atom         0.66835802        0.71743334        0.74262678  Se
            atom        -0.64268628       -2.25881531        3.04685630  Se
            atom        -2.25452253        2.28494994       -0.71025688  Se

  Fractional coordinates:
                         L1                L2                L3
       atom_frac        -0.49783954        0.00217791        0.00209957  Pd
       atom_frac         0.00212983        0.00221022       -0.49774525  Pd
       atom_frac         0.00222554       -0.49786252        0.00206957  Pd
       atom_frac        -0.49777252       -0.49779135       -0.49772335  Pd
       atom_frac        -0.38571587        0.12056744        0.40551949  Se
       atom_frac        -0.10999994       -0.11619355       -0.09451282  Se
       atom_frac         0.11440696        0.38380746       -0.40109074  Se
       atom_frac         0.39010157       -0.37940759        0.09884790  Se
       atom_frac         0.39002557       -0.11618350       -0.40108210  Se
       atom_frac         0.11435071        0.12050866        0.09884261  Se
       atom_frac        -0.10995848       -0.37941755        0.40553242  Se
       atom_frac        -0.38573077        0.38380744       -0.09453422  Se
------------------------------------------------------------

------------------------------------------------------------------------------
  Final output of selected total energy values:

  The following output summarizes some interesting total energy values
  at the end of a run (AFTER all relaxation, molecular dynamics, etc.).

  | Total energy of the DFT / Hartree-Fock s.c.f. calculation      :       -1087911.115869787 eV
  | Final zero-broadening corrected energy (caution - metals only) :       -1087911.116790686 eV
  | For reference only, the value of 1 Hartree used in FHI-aims is :             27.211384500 eV
  | For reference only, the overall average (free atom contribution
  | + realspace contribution) of the electrostatic potential after
  | s.c.f. convergence is                                          :            -16.947841744 eV

  Before relying on these values, please be sure to understand exactly which
  total energy value is referred to by a given number. Different objects may
  all carry the same name 'total energy'. Definitions:

  Total energy of the DFT / Hartree-Fock s.c.f. calculation:
  | Note that this energy does not include ANY quantities calculated after the
  | s.c.f. cycle, in particular not ANY RPA, MP2, etc. many-body perturbation terms.

  Final zero-broadening corrected energy:
  | For metallic systems only, a broadening of the occupation numbers at the Fermi
  | level can be extrapolated back to zero broadening by an electron-gas inspired
  | formula. For all systems that are not real metals, this value can be
  | meaningless and should be avoided.

------------------------------------------------------------------------------
  Methods described in the following list of references were used in this FHI-aims run.
  If you publish the results, please make sure to cite these reference if they apply.
  FHI-aims is an academic code, and for our developers (often, Ph.D. students
  and postdocs), scientific credit in the community is essential.
  Thank you for helping us!

  For any use of FHI-aims, please cite:

    Volker Blum, Ralf Gehrke, Felix Hanke, Paula Havu, Ville Havu,
    Xinguo Ren, Karsten Reuter, and Matthias Scheffler
    'Ab initio molecular simulations with numeric atom-centered orbitals'
    Computer Physics Communications 180, 2175-2196 (2009)
    http://dx.doi.org/10.1016/j.cpc.2009.06.022


  For the analytical stress tensor used in your run, please cite:

    Franz Knuth, Christian Carbogno, Viktor Atalla, Volker Blum, Matthias Scheffler
    'All-electron formalism for total energy strain derivatives and
    stress tensor components for numeric atom-centered orbitals'
    Computer Physics Communications 190, 33-50 (2015).
    http://dx.doi.org/10.1016/j.cpc.2015.01.003


  The provided symmetry information was generated with SPGlib:

    Atsushi Togo, Yusuke Seto, Dimitar Pashov
    SPGlib 1.7.3 obtained from http://spglib.sourceforge.net
    Copyright (C) 2008 Atsushi Togo


  The ELSI infrastructure was used in your run to solve the Kohn-Sham electronic structure.
  Please check out http://elsi-interchange.org to learn more.
  If scalability is important for your project, please acknowledge ELSI by citing:

    V. W-z. Yu, F. Corsetti, A. Garcia, W. P. Huhn, M. Jacquelin, W. Jia,
    B. Lange, L. Lin, J. Lu, W. Mi, A. Seifitokaldani, A. Vazquez-Mayagoitia,
    C. Yang, H. Yang, and V. Blum
    'ELSI: A unified software interface for Kohn-Sham electronic structure solvers'
    Computer Physics Communications 222, 267-285 (2018).
    http://dx.doi.org/10.1016/j.cpc.2017.09.007


  For the real-space grid partitioning and parallelization used in this calculation, please cite:

    Ville Havu, Volker Blum, Paula Havu, and Matthias Scheffler,
    'Efficient O(N) integration for all-electron electronic structure calculation'
    'using numerically tabulated basis functions'
    Journal of Computational Physics 228, 8367-8379 (2009).
    http://dx.doi.org/10.1016/j.jcp.2009.08.008

  Of course, there are many other important community references, e.g., those cited in the
  above references. Our list is limited to references that describe implementations in the
  FHI-aims code. The reason is purely practical (length of this list) - please credit others as well.

------------------------------------------------------------
          Leaving FHI-aims.
          Date     :  20200420, Time     :  213904.870

          Computational steps:
          | Number of self-consistency cycles          :          109
          | Number of SCF (re)initializations          :            5
          | Number of relaxation steps                 :            4

          Detailed time accounting                     :  max(cpu_time)    wall_clock(cpu1)
          | Total time                                 :     3138.268 s        3139.423 s
          | Preparation time                           :        0.556 s           0.625 s
          | Boundary condition initalization           :        0.666 s           0.669 s
          | Grid partitioning                          :        1.728 s           1.728 s
          | Preloading free-atom quantities on grid    :        4.566 s           4.566 s
          | Free-atom superposition energy             :        0.742 s           0.743 s
          | Total time for integrations                :      305.980 s         305.987 s
          | Total time for solution of K.-S. equations :     1089.103 s        1090.202 s
          | Total time for EV reorthonormalization     :       12.862 s          12.585 s
          | Total time for density & force components  :     1308.728 s        1308.809 s
          | Total time for mixing & preconditioning    :       81.065 s          81.095 s
          | Total time for Hartree multipole update    :        0.577 s           0.581 s
          | Total time for Hartree multipole sum       :      243.928 s         243.932 s
          | Total time for total energy evaluation     :        1.606 s           1.583 s
          | Total time for scaled ZORA corrections     :        0.000 s           0.000 s
          | Total time for vdW correction              :       80.673 s          80.695 s

          Partial memory accounting:
          | Residual value for overall tracked memory usage across tasks:     0.000000 MB (should be 0.000000 MB)
          | Peak values for overall tracked memory usage:
          |   Minimum:      336.097 MB (on task 11 after allocating d_wave)
          |   Maximum:      341.326 MB (on task  9 after allocating d_wave)
          |   Average:      338.442 MB
          | Largest tracked array allocation:
          |   Minimum:      144.865 MB (KS_eigenvector_complex on task  0)
          |   Maximum:      146.964 MB (KS_eigenvector_complex on task  1)
          |   Average:      145.739 MB
          Note:  These values currently only include a subset of arrays which are explicitly tracked.
          The "true" memory usage will be greater.

          Have a nice day.
------------------------------------------------------------
