------------------------------------------------------------
          Invoking FHI-aims ...

          When using FHI-aims, please cite the following reference:

          Volker Blum, Ralf Gehrke, Felix Hanke, Paula Havu,
          Ville Havu, Xinguo Ren, Karsten Reuter, and Matthias Scheffler,
          'Ab Initio Molecular Simulations with Numeric Atom-Centered Orbitals',
          Computer Physics Communications 180, 2175-2196 (2009)

          For any questions about FHI-aims, please visit the aimsclub website
          with its forums and wiki. Contributions to both the forums and the
          wiki are warmly encouraged - they are for you, and everyone is welcome there.

------------------------------------------------------------



  Date     :  20200420, Time     :  113459.501
  Time zero on CPU 1             :   0.944440000000000E-01  s.
  Internal wall clock time zero  :           356614499.501  s.

  FHI-aims created a unique identifier for this run for later identification
  aims_uuid : 0C15966A-BB77-4AF2-AADB-6713D2BA0142

  Build configuration of the current instance of FHI-aims
  -------------------------------------------------------
  FHI-aims version      : 200112
  Commit number         : 23daeca3f
  CMake host system     : Linux-3.10.0-693.21.1.el7.x86_64
  CMake version         : 3.13.3
  Fortran compiler      : /sw/installed/impi/2018.4.274-iccifort-2019.1.144-GCC-8.2.0-2.31.1/bin64/mpiifort (Intel) version 19.0.0.20181018
  Fortran compiler flags: -O3 -ip -fp-model precise
  C compiler            : /sw/installed/impi/2018.4.274-iccifort-2019.1.144-GCC-8.2.0-2.31.1/bin64/mpiicc (Intel) version 19.0.0.20181018
  C compiler flags      : -O3 -ip -fp-model precise
  Architecture          :
  Using MPI
  Using Scalapack
  Using C files
  Using LibXC
  Using SPGlib
  Using i-PI
  Using RLSY
  Linking against: /sw/installed/imkl/2019.1.144-iimpi-2019a/mkl/lib/intel64/libmkl_intel_lp64.so
                   /sw/installed/imkl/2019.1.144-iimpi-2019a/mkl/lib/intel64/libmkl_sequential.so
                   /sw/installed/imkl/2019.1.144-iimpi-2019a/mkl/lib/intel64/libmkl_core.so
                   /sw/installed/imkl/2019.1.144-iimpi-2019a/mkl/lib/intel64/libmkl_blacs_intelmpi_lp64.so
                   /sw/installed/imkl/2019.1.144-iimpi-2019a/mkl/lib/intel64/libmkl_scalapack_lp64.so

  Using       24 parallel tasks.
  Task        0 on host taurusi6515.taurus.hrsk.tu-dresden.de reporting.
  Task        1 on host taurusi6515.taurus.hrsk.tu-dresden.de reporting.
  Task        2 on host taurusi6515.taurus.hrsk.tu-dresden.de reporting.
  Task        3 on host taurusi6515.taurus.hrsk.tu-dresden.de reporting.
  Task        4 on host taurusi6515.taurus.hrsk.tu-dresden.de reporting.
  Task        5 on host taurusi6515.taurus.hrsk.tu-dresden.de reporting.
  Task        6 on host taurusi6515.taurus.hrsk.tu-dresden.de reporting.
  Task        7 on host taurusi6515.taurus.hrsk.tu-dresden.de reporting.
  Task        8 on host taurusi6515.taurus.hrsk.tu-dresden.de reporting.
  Task        9 on host taurusi6515.taurus.hrsk.tu-dresden.de reporting.
  Task       10 on host taurusi6515.taurus.hrsk.tu-dresden.de reporting.
  Task       11 on host taurusi6515.taurus.hrsk.tu-dresden.de reporting.
  Task       12 on host taurusi6515.taurus.hrsk.tu-dresden.de reporting.
  Task       13 on host taurusi6515.taurus.hrsk.tu-dresden.de reporting.
  Task       14 on host taurusi6515.taurus.hrsk.tu-dresden.de reporting.
  Task       15 on host taurusi6515.taurus.hrsk.tu-dresden.de reporting.
  Task       16 on host taurusi6515.taurus.hrsk.tu-dresden.de reporting.
  Task       17 on host taurusi6515.taurus.hrsk.tu-dresden.de reporting.
  Task       18 on host taurusi6515.taurus.hrsk.tu-dresden.de reporting.
  Task       19 on host taurusi6515.taurus.hrsk.tu-dresden.de reporting.
  Task       20 on host taurusi6515.taurus.hrsk.tu-dresden.de reporting.
  Task       21 on host taurusi6515.taurus.hrsk.tu-dresden.de reporting.
  Task       22 on host taurusi6515.taurus.hrsk.tu-dresden.de reporting.
  Task       23 on host taurusi6515.taurus.hrsk.tu-dresden.de reporting.

  Performing system and environment tests:
  | Environment variable OMP_NUM_THREADS correctly set to 1.
  | Maximum stacksize for task 0: unlimited
  | Maximum stacksize for task 1: unlimited
  | Maximum stacksize for task 2: unlimited
  | Maximum stacksize for task 3: unlimited
  | Maximum stacksize for task 4: unlimited
  | Maximum stacksize for task 5: unlimited
  | Maximum stacksize for task 6: unlimited
  | Maximum stacksize for task 7: unlimited
  | Maximum stacksize for task 8: unlimited
  | Maximum stacksize for task 9: unlimited
  | Maximum stacksize for task 10: unlimited
  | Maximum stacksize for task 11: unlimited
  | Maximum stacksize for task 12: unlimited
  | Maximum stacksize for task 13: unlimited
  | Maximum stacksize for task 14: unlimited
  | Maximum stacksize for task 15: unlimited
  | Maximum stacksize for task 16: unlimited
  | Maximum stacksize for task 17: unlimited
  | Maximum stacksize for task 18: unlimited
  | Maximum stacksize for task 19: unlimited
  | Maximum stacksize for task 20: unlimited
  | Maximum stacksize for task 21: unlimited
  | Maximum stacksize for task 22: unlimited
  | Maximum stacksize for task 23: unlimited
  | Current stacksize for task 0: unlimited
  | Current stacksize for task 1: unlimited
  | Current stacksize for task 2: unlimited
  | Current stacksize for task 3: unlimited
  | Current stacksize for task 4: unlimited
  | Current stacksize for task 5: unlimited
  | Current stacksize for task 6: unlimited
  | Current stacksize for task 7: unlimited
  | Current stacksize for task 8: unlimited
  | Current stacksize for task 9: unlimited
  | Current stacksize for task 10: unlimited
  | Current stacksize for task 11: unlimited
  | Current stacksize for task 12: unlimited
  | Current stacksize for task 13: unlimited
  | Current stacksize for task 14: unlimited
  | Current stacksize for task 15: unlimited
  | Current stacksize for task 16: unlimited
  | Current stacksize for task 17: unlimited
  | Current stacksize for task 18: unlimited
  | Current stacksize for task 19: unlimited
  | Current stacksize for task 20: unlimited
  | Current stacksize for task 21: unlimited
  | Current stacksize for task 22: unlimited
  | Current stacksize for task 23: unlimited
  | Checking for scalapack...
  | Testing pdtran()...
  | All pdtran() tests passed.

  Obtaining array dimensions for all initial allocations:
  
  -----------------------------------------------------------------------
  Parsing control.in (first pass over file, find array dimensions only).
  The contents of control.in will be repeated verbatim below
  unless switched off by setting 'verbatim_writeout .false.' .
  in the first line of control.in .
  -----------------------------------------------------------------------
  
  #===============================================================================
  # FHI-aims file: ./control.in
  # Created using the Atomic Simulation Environment (ASE)
  # Thu Apr  2 11:27:09 2020
  #===============================================================================
  xc                                 pbe
  # include_spin_orbit
  # vdw_correction_hirshfeld
  many_body_dispersion_nl 	 beta=0.81
  spin                               none
  k_grid 	 	 7 7 6
  relativistic                       atomic_zora scalar
  energy_tolerance 1e-2
  harmonic_length_scale  0.015
  ### SCF settings
  adjust_scf 	 always 	 3
  # frozen_core_scf 	 .true.
  # charge_mix_param  0.05
  # occupation_type 	 gaussian 	 0.01
  # sc_accuracy_eev   1E-3 	 	 # sum of eigenvalues convergence
  # sc_accuracy_etot  1E-6 	 	 # total energy convergence
  # sc_accuracy_rho   1E-3 	 	 # electron density convergence
  # elsi_restart 	 read_and_write 	 1000
  ### geometry optimisation section
  relax_geometry 	 bfgs 	 1E-2
  relax_unit_cell 	 full
  #===============================================================================
  
  ################################################################################
  #
  #  FHI-aims code project
  # Volker Blum, Fritz Haber Institute Berlin, 2009
  #
  #  Suggested "tight" defaults for Pd atom (to be pasted into control.in file)
  #
  ################################################################################
    species        Pd
  #     global species definitions
      nucleus             46
      mass                106.42
  #
      l_hartree           6
  #
      cut_pot             4.0  2.0  1.0
      basis_dep_cutoff    1e-4
  #
      radial_base         62 7.0
      radial_multiplier   2
      angular_grids specified
        division   0.3627   50
        division   0.7349  110
        division   1.0624  194
        division   1.2496  302
        division   1.6740  434
  #      division   2.0126  590
  #      division   2.0830  770
  #      division   2.7936 1202
  #       outer_grid  974
        outer_grid  434
  ################################################################################
  #
  #  Definition of "minimal" basis
  #
  ################################################################################
  #     valence basis states
      valence      5  s   1.
      valence      4  p   6.
      valence      4  d   9.
  #     ion occupancy
      ion_occ     5  s   0.
      ion_occ     4  p   6.
      ion_occ     4  d   8.
  ################################################################################
  #
  #  Suggested additional basis functions. For production calculations,
  #  uncomment them one after another (the most important basis functions are
  #  listed first).
  #
  #  Constructed for dimers: 2.0 A, 2.275 A, 2.75 A, 3.75 A
  #
  ################################################################################
  #  "First tier" - max. impr. -120.76  meV, min. impr. -5.71 meV
       ionic 5 p auto
       hydro 4 f 8
       hydro 5 g 10
       hydro 3 s 2.6
       hydro 3 d 2.5
  #  "Second tier" - max. impr. -5.00  meV, min. impr. -0.62 meV
  #     hydro 5 f 17.2
  #     hydro 6 h 14
  #     hydro 4 d 4
  #     hydro 5 f 7.6
  #     hydro 3 p 3.3
  #     hydro 4 s 9.4
  #  "Third tier" - max. impr. -0.54  meV, min. impr. -0.14 meV
  #     hydro 4 f 20
  #     hydro 5 g 12.8
  #     hydro 5 d 9.8
  #     hydro 6 h 15.2
  #     hydro 5 s 10
  #     hydro 6 p 9.8
  #  "Fourth tier" - max. impr. -0.15  meV, min. impr. -0.05 meV
  #     hydro 5 f 9.2
  #     hydro 2 s 5.6
  #     hydro 5 f 43.2
  #     hydro 5 d 13.2
  #     hydro 5 g 14
  #     hydro 4 p 4.7
  ################################################################################
  #
  #  FHI-aims code project
  # Volker Blum, Fritz Haber Institute Berlin, 2009
  #
  #  Suggested "tight" defaults for Se atom (to be pasted into control.in file)
  #
  ################################################################################
    species        Se
  #     global species definitions
      nucleus             34
      mass                78.96
  #
      l_hartree           6
  #
      cut_pot             4.0          2.0  1.0
      basis_dep_cutoff    1e-4
  #
      radial_base         55 7.0
      radial_multiplier   2
      angular_grids       specified
        division   0.0830  110
        division   0.1357  194
        division   0.7377  302
        division   0.8610  434
  #      division   0.9640  590
  #      division   1.0773  770
  #      division   2.5539  974
  #      outer_grid  974
        outer_grid  434
  ################################################################################
  #
  #  Definition of "minimal" basis
  #
  ################################################################################
  #     valence basis states
      valence      4  s   2.
      valence      4  p   4.
      valence      3  d  10.
  #     ion occupancy
      ion_occ      4  s   1.
      ion_occ      4  p   3.
      ion_occ      3  d  10.
  ################################################################################
  #
  #  Suggested additional basis functions. For production calculations,
  #  uncomment them one after another (the most important basis functions are
  #  listed first).
  #
  #  Constructed for dimers: 1.85 A, 2.15 A, 2.50 A, 3.00 A, 4.00 A
  #
  ################################################################################
  #  "First tier" - improvements: -336.21 meV to -36.85 meV
       hydro 3 d 4.3
       hydro 2 p 1.6
       hydro 4 f 7.2
       ionic 4 s auto
  #  "Second tier" - improvements: -14.39 meV to -1.49 meV
  #     hydro 5 g 10.4
  #     hydro 4 p 4.5
  #     hydro 4 d 6.2
  #     hydro 4 f 11.2
  #     hydro 1 s 0.65
  #     hydro 6 h 15.2
  #  "Third tier" - improvements: -0.46 meV and below
  #     hydro 5 g 14.4
  #     ionic 4 d auto
  #     hydro 4 f 22.4
  #     hydro 5 f 7.4
  #     hydro 5 p 8
  #     hydro 5 s 9.4
  #  "Fourth tier" - improvements: -0.12 meV and below
  #     hydro 5 d 11.6
  #     hydro 6 h 18
  #     hydro 4 p 4
  #     hydro 5 f 16
  #     hydro 4 s 3.9
  #
  #
  
  -----------------------------------------------------------------------
  Completed first pass over input file control.in .
  -----------------------------------------------------------------------
  
  
  -----------------------------------------------------------------------
  Parsing geometry.in (first pass over file, find array dimensions only).
  The contents of geometry.in will be repeated verbatim below
  unless switched off by setting 'verbatim_writeout .false.' .
  in the first line of geometry.in .
  -----------------------------------------------------------------------
  
  #
  # This is the geometry file that corresponds to the current relaxation step.
  # If you do not want this file to be written, set the "write_restart_geometry" flag to .false.
  #  aims_uuid : FBDB5AE5-CFC2-4185-A972-51D7470B4511
  #
  lattice_vector      5.84149640      0.00000000      0.00000000
  lattice_vector      0.00000000      5.95249672      0.00000000
  lattice_vector      0.00000000      0.00000000      7.49741726
  atom_frac       0.50108568      0.00108086      0.00085666 Pd
  atom_frac       0.00105326      0.00109235      0.50141855 Pd
  atom_frac       0.00116521      0.50111989      0.00092290 Pd
  atom_frac       0.50118922      0.50113264      0.50134966 Pd
  atom_frac       0.61275385      0.11916656      0.40362433 Se
  atom_frac       0.88959481      0.88315620      0.90341118 Se
  atom_frac       0.11272362      0.38312759      0.59886179 Se
  atom_frac       0.38950640      0.61917359      0.09862667 Se
  atom_frac       0.38956088      0.88318178      0.59886302 Se
  atom_frac       0.11278144      0.11918432      0.09867806 Se
  atom_frac       0.88956800      0.61916339      0.40362497 Se
  atom_frac       0.61271723      0.38312043      0.90346181 Se
  #
  # What follows is the current estimated Hessian matrix constructed by the BFGS algorithm.
  # This is NOT the true Hessian matrix of the system.
  # If you do not want this information here, switch it off using the "hessian_to_restart_geometry" keyword.
  #
  trust_radius             0.0122154887
  hessian_block                1       1           5.880449           0.091056          -2.204405           0.091056           6.26499
  hessian_block                1       2           0.034506           0.406280           0.062686           0.392835           0.42388
  hessian_block                1       3           0.045126           0.570947           0.088341          -0.123370          -0.19802
  hessian_block                1       4           0.484871           0.323145          -0.042822           0.089783          -0.19983
  hessian_block                1       5          -0.109967          -0.504870          -0.274039          -0.375601           0.04288
  hessian_block                1       6          -1.749557           0.158606           0.715684           0.390095          -0.41550
  hessian_block                1       7          -0.311149           0.121446           0.216339           0.169018           0.31608
  hessian_block                1       8          -0.243712          -0.679066           0.308952          -0.401236          -2.04630
  hessian_block                1       9          -0.133160           0.034605           0.222558          -0.359991          -0.33911
  hessian_block                1      10          -2.227135           0.684801           0.954709           0.172852          -0.24900
  hessian_block                1      11           0.036442          -0.381430          -0.190248           0.083542          -0.23851
  hessian_block                1      12          -0.140805          -0.825519           0.142244          -0.128982          -1.71453
  hessian_block                2       2           6.006942           0.358525           2.288067           0.358525           6.67458
  hessian_block                2       3           0.851575           0.644429           0.288819          -0.432417          -0.28644
  hessian_block                2       4           0.291301           0.552929           0.128398          -0.396621           0.10533
  hessian_block                2       5          -2.099219           0.150298          -0.841924           0.378091          -0.35796
  hessian_block                2       6          -0.473559          -0.345357          -0.147121          -0.211328          -0.65283
  hessian_block                2       7          -0.122260          -0.539573          -0.273024          -0.420208          -1.63767
  hessian_block                2       8          -0.290450          -0.393382          -0.207849           0.081320          -0.14177
  hessian_block                2       9          -2.028678           0.338398          -1.008757           0.609548          -0.78106
  hessian_block                2      10           0.387117          -0.076000           0.113796           0.154067           0.28258
  hessian_block                2      11          -0.483876          -0.857113          -0.295435          -0.528423          -2.35763
  hessian_block                2      12          -0.507488          -0.225991          -0.090162           0.001165           0.37603
  hessian_block                3       3           6.485955          -0.446907           2.422470          -0.446907           6.21936
  hessian_block                3       4           0.395749          -0.261011          -0.002960          -0.397693           0.28523
  hessian_block                3       5          -0.537952           0.092413          -0.341371          -0.139519           0.30531
  hessian_block                3       6          -0.821688           0.632483          -0.505672           0.082501          -1.85013
  hessian_block                3       7           0.057494           0.070191           0.217069           0.164566          -0.01730
  hessian_block                3       8          -2.172143          -0.316299          -0.861664          -0.587991          -0.45907
  hessian_block                3       9          -0.315391           0.354066           0.139751          -0.032437          -0.12268
  hessian_block                3      10           0.403337           0.491688           0.109949           0.871520          -1.89869
  hessian_block                3      11          -0.453489           0.179951          -0.223137          -0.238027          -0.16181
  hessian_block                3      12          -2.372662          -0.240788          -1.025759          -0.491391          -0.16873
  hessian_block                4       4           5.912025           0.004703          -2.008675           0.004703           6.36929
  hessian_block                4       5          -0.502473           0.731164           0.299870           0.228091          -1.81971
  hessian_block                4       6          -0.157546           0.147390           0.005982          -0.252769          -0.32663
  hessian_block                4       7          -1.884609          -0.605146           0.748413          -0.222096          -0.26600
  hessian_block                4       8          -0.257277          -0.008017          -0.091013           0.092146          -0.25555
  hessian_block                4       9          -0.292813           0.608843           0.122673           0.095217          -2.24114
  hessian_block                4      10          -0.311935          -0.200243          -0.103562          -0.229095           0.35278
  hessian_block                4      11          -1.956523          -0.338414           0.827041          -0.658000          -0.50553
  hessian_block                4      12          -0.154861           0.364252           0.030576           0.326743           0.14878
  hessian_block                5       5           5.345766          -0.489878          -1.297238          -0.489878           5.80380
  hessian_block                5       6           0.343584           0.015382          -0.293945           0.100852          -0.11974
  hessian_block                5       7          -0.426491           0.810828          -0.032558          -0.894751           0.33233
  hessian_block                5       8           0.070891          -0.015607           0.346841           0.427826          -0.26040
  hessian_block                5       9          -1.358549          -0.341721           1.741346          -0.322820          -1.63813
  hessian_block                5      10          -0.092126           0.255925           0.400377           0.269995           0.30680
  hessian_block                5      11           0.610157          -0.587457           0.110598           0.811403          -0.66426
  hessian_block                5      12           0.322290           0.261466          -0.495583          -0.371635          -0.28388
  hessian_block                6       6           5.175117           0.276218           1.651166           0.276218           5.63091
  hessian_block                6       7           0.220019          -0.034106           0.048954           0.157362           0.08758
  hessian_block                6       8           0.101395           0.402191           0.145265           0.328071           0.22931
  hessian_block                6       9           0.087952           0.181115           0.083750           0.026744           0.57262
  hessian_block                6      10          -1.577913          -1.154594          -2.521397          -1.237525          -1.81883
  hessian_block                6      11          -0.023966           0.211159          -0.193940          -0.006894           0.44330
  hessian_block                6      12           0.442073           0.008666           0.062262          -0.152479          -0.13303
  hessian_block                7       7           5.181027           0.636863           0.926743           0.636863           5.82496
  hessian_block                7       8          -0.128883          -0.028458          -0.071769          -0.065966          -0.28751
  hessian_block                7       9           0.425201           0.590820          -0.201156          -0.536646          -0.66794
  hessian_block                7      10           0.011455          -0.405091          -0.363663           0.178150          -0.46845
  hessian_block                7      11          -1.611122           0.305938          -1.487821           0.239252          -1.92394
  hessian_block                7      12           0.155231          -0.053964           0.468637          -0.275292           0.35490
  hessian_block                8       8           4.722772          -0.019889          -0.942467          -0.019889           5.57813
  hessian_block                8       9           0.281657          -0.476160          -0.190585           0.224665           0.25128
  hessian_block                8      10          -0.054890          -0.304746           0.128902          -0.437678          -0.22559
  hessian_block                8      11           0.323582          -0.063307          -0.115056           0.227910           0.68681
  hessian_block                8      12          -0.787032           0.989932           1.724850           1.043632          -1.42231
  hessian_block                9       9           5.051204          -0.556424          -0.784479          -0.556424           6.16832
  hessian_block                9      10          -0.056369           0.416737          -0.246174          -0.295183          -0.02244
  hessian_block                9      11          -0.230197           0.709924           0.007441          -0.625911           0.79986
  hessian_block                9      12           0.135054          -0.274516           0.659290           0.187551          -0.33253
  hessian_block               10      10           5.425542           0.574711           1.535616           0.574711           6.21999
  hessian_block               10      11           0.061805          -0.074729           0.339333           0.009671          -0.46449
  hessian_block               10      12          -0.402978           0.052913          -0.034562          -0.292860          -0.36761
  hessian_block               11      11           5.243144           0.760328           0.845396           0.760328           6.29189
  hessian_block               11      12           0.049953          -0.074851          -0.483706           0.135149          -0.25865
  hessian_block               12      12           4.827138           0.018400          -0.958087           0.018400           5.44860
  hessian_block_lv             1       1          26.036353          -2.103045           5.153394          -2.103045          24.69771
  hessian_block_lv_atom        1       1           0.068872           0.287355           0.022489          -0.440254          -0.52917
  hessian_block_lv_atom        1       2          -0.646287          -0.947217          -0.228355          -0.091757          -0.55501
  hessian_block_lv_atom        1       3          -0.865814          -1.315235          -0.290329           0.403532           0.64412
  hessian_block_lv_atom        1       4          -0.232917          -0.238586          -0.065622           0.694402           0.53429
  hessian_block_lv_atom        1       5           0.661336           0.812590           0.471034           0.231392           0.05815
  hessian_block_lv_atom        1       6           0.096815          -0.174323          -0.206015          -0.423728          -0.13324
  hessian_block_lv_atom        1       7          -0.583775          -0.844271           0.073453          -0.943228          -1.00762
  hessian_block_lv_atom        1       8           0.221898           0.681735          -0.214318           0.098549           0.18778
  hessian_block_lv_atom        1       9           0.076347           0.198695          -0.238391          -0.534095          -0.32886
  hessian_block_lv_atom        1      10          -0.127656           0.021720           0.247992           0.427131          -0.23374
  hessian_block_lv_atom        1      11           0.728862           1.025418          -0.010661           0.634593           1.29378
  hessian_block_lv_atom        1      12           0.602319           0.492119           0.438723          -0.056537           0.06952
  symmetry_n_params 39 3 36
  symmetry_params a1 b2 c3 x0 x1 x2 x3 x4 x5 x6 x7 x8 x9 x10 x11 x12 x13 x14 x15 x16 x17 x18 x19 x20 x21 x22 x23 x24 x25 x26 x27 x28 x
  symmetry_lv a1 , 0 , 0
  symmetry_lv 0 , b2 , 0
  symmetry_lv 0 , 0 , c3
  symmetry_frac x0 , x1 , x2
  symmetry_frac x3 , x4 , x5
  symmetry_frac x6 , x7 , x8
  symmetry_frac x9 , x10 , x11
  symmetry_frac x12 , x13 , x14
  symmetry_frac x15 , x16 , x17
  symmetry_frac x18 , x19 , x20
  symmetry_frac x21 , x22 , x23
  symmetry_frac x24 , x25 , x26
  symmetry_frac x27 , x28 , x29
  symmetry_frac x30 , x31 , x32
  symmetry_frac x33 , x34 , x35
  
  -----------------------------------------------------------------------
  Completed first pass over input file geometry.in .
  -----------------------------------------------------------------------
  

  Basic array size parameters:
  | Number of species                 :        2
  | Number of atoms                   :       12
  | Number of lattice vectors         :        3
  | Max. basis fn. angular momentum   :        4
  | Max. atomic/ionic basis occupied n:        5
  | Max. number of basis fn. types    :        3
  | Max. radial fns per species/type  :       10
  | Max. logarithmic grid size        :     1444
  | Max. radial integration grid size :      125
  | Max. angular integration grid size:      434
  | Max. angular grid division number :        8
  | Radial grid for Hartree potential :     1444
  | Number of spin channels           :        1

------------------------------------------------------------
          Reading file control.in.
------------------------------------------------------------
  XC: Using PBE gradient-corrected functionals.
  Using libMBD for calculating MBD and TS energies
  Spin treatment: No spin polarisation.
  Found k-point grid:         7         7         6
  Scalar relativistic treatment of kinetic energy: on-site free-atom approximation to ZORA.
  Max energy increase before discarding BFGS move:   0.100000E-01 eV
  Assuming qualitatively harmonic for steps shorter than   0.150000E-01 A.
  S.C.F. convergence parameters will be adjusted in iteration number     3 of each new s.c.f. cycle.
  Geometry relaxation: Modified BFGS - TRM (trust radius method) for lattice optimization.
  Convergence accuracy for geometry relaxation: Maximum force <   0.100000E-01 eV/A.
 
  Reading configuration options for species Pd                  .
  | Found nuclear charge :  46.0000
  | Found atomic mass :    106.420000000000      amu
  | Found l_max for Hartree potential  :   6
  | Found cutoff potl. onset [A], width [A], scale factor :    4.00000    2.00000    1.00000
  | Threshold for basis-dependent cutoff potential is   0.100000E-03
  | Found data for basic radial integration grid :    62 points, outermost radius =    7.000 A
  | Found multiplier for basic radial grid :   2
  | Found angular grid specification: user-specified.
  | Specified grid contains     6 separate shells.
  | Check grid settings after all constraints further below.
  | Found free-atom valence shell :  5 s   1.000
  | Found free-atom valence shell :  4 p   6.000
  | Found free-atom valence shell :  4 d   9.000
  | Found free-ion valence shell :  5 s   0.000
  | Found free-ion valence shell :  4 p   6.000
  | Found free-ion valence shell :  4 d   8.000
  | Found ionic basis function :  5 p , default cutoff radius.
  | Found hydrogenic basis function :  4 f   8.000
  | Found hydrogenic basis function :  5 g  10.000
  | Found hydrogenic basis function :  3 s   2.600
  | Found hydrogenic basis function :  3 d   2.500
  Species Pd                  : Missing cutoff potential type.
  Defaulting to exp(1/x)/(1-x)^2 type cutoff potential.
  Species Pd: No 'logarithmic' tag. Using default grid for free atom:
  | Default logarithmic grid data [bohr] : 0.1000E-03 0.1000E+03 0.1012E+01
  | Will include ionic basis functions of  2.0-fold positive Pd                   ion.
  Species Pd: On-site basis accuracy parameter (for Gram-Schmidt orthonormalisation) not specified.
  Using default value basis_acc =  0.1000000E-03.
  Species Pd                  : Using default innermost maximum threshold i_radial=  2 for radial functions.
  Species Pd                  : Default cutoff onset for free atom density etc. : 0.40000000E+01 AA.
  Species Pd                  : Basic radial grid will be enhanced according to radial_multiplier =   2, to contain   125 grid points.
 
  Reading configuration options for species Se                  .
  | Found nuclear charge :  34.0000
  | Found atomic mass :    78.9600000000000      amu
  | Found l_max for Hartree potential  :   6
  | Found cutoff potl. onset [A], width [A], scale factor :    4.00000    2.00000    1.00000
  | Threshold for basis-dependent cutoff potential is   0.100000E-03
  | Found data for basic radial integration grid :    55 points, outermost radius =    7.000 A
  | Found multiplier for basic radial grid :   2
  | Found angular grid specification: user-specified.
  | Specified grid contains     5 separate shells.
  | Check grid settings after all constraints further below.
  | Found free-atom valence shell :  4 s   2.000
  | Found free-atom valence shell :  4 p   4.000
  | Found free-atom valence shell :  3 d  10.000
  | Found free-ion valence shell :  4 s   1.000
  | Found free-ion valence shell :  4 p   3.000
  | Found free-ion valence shell :  3 d  10.000
  | Found hydrogenic basis function :  3 d   4.300
  | Found hydrogenic basis function :  2 p   1.600
  | Found hydrogenic basis function :  4 f   7.200
  | Found ionic basis function :  4 s , default cutoff radius.
  Species Se                  : Missing cutoff potential type.
  Defaulting to exp(1/x)/(1-x)^2 type cutoff potential.
  Species Se: No 'logarithmic' tag. Using default grid for free atom:
  | Default logarithmic grid data [bohr] : 0.1000E-03 0.1000E+03 0.1012E+01
  | Will include ionic basis functions of  2.0-fold positive Se                   ion.
  Species Se: On-site basis accuracy parameter (for Gram-Schmidt orthonormalisation) not specified.
  Using default value basis_acc =  0.1000000E-03.
  Species Se                  : Using default innermost maximum threshold i_radial=  2 for radial functions.
  Species Se                  : Default cutoff onset for free atom density etc. : 0.40000000E+01 AA.
  Species Se                  : Basic radial grid will be enhanced according to radial_multiplier =   2, to contain   111 grid points.
 
  Finished reading input file 'control.in'. Consistency checks are next.
 
  MPI_IN_PLACE appears to work with this MPI implementation.
  | Keeping use_mpi_in_place .true. (see manual).
  Target number of points in a grid batch is not set. Defaulting to  100
  Method for grid partitioning is not set. Defaulting to parallel hash+maxmin partitioning.
  Batch size limit is not set. Defaulting to    200
  By default, will store active basis functions for each batch.
  If in need of memory, prune_basis_once .false. can be used to disable this option.
  communication_type for Hartree potential was not specified.
  Defaulting to calc_hartree .
  Defaulting to Pulay charge density mixer.
  Pulay mixer: Number of relevant iterations not set.
  Defaulting to    8 iterations.
  Pulay mixer: Number of initial linear mixing iterations not set.
  Defaulting to    0 iterations.
  Work space size for distributed Hartree potential not set.
  Defaulting to   0.200000E+03 MB.
  Mixing parameter for charge density mixing has not been set.
  Using default: charge_mix_param =     0.0500.
  The mixing parameter will be adjusted in iteration number     3 of each s.c.f. cycle (i.e., each geometry step).
  Algorithm-dependent basis array size parameters:
  | n_max_pulay                         :        8
  Maximum number of self-consistency iterations not provided.
  Presetting  1000 iterations.
  Presetting      1001 iterations before the initial mixing cycle
  is restarted anyway using the sc_init_iter criterion / keyword.
  Presetting a factor      1.000 between actual scf density residual
  and density convergence criterion sc_accuracy_rho below which sc_init_iter
  takes no effect.
 * No s.c.f. convergence criteria (sc_accuracy_*) were provided in control.in.
 * The run will proceed with a reasonable default guess, but please check whether.
 * the s.c.f. cycles seem to take too much or too little time.
  No maximum number of relaxation steps, defaulting to     1000
  Using explicit Hessian from geometry.in.
  Maximum energy tolerance by which TRM/BFGS trajectory may increase over multiple steps:   0.300000E-02
  No trust radius initializer. Defaulting to   0.200000E+00 A.
  Unit cell relaxation: Unit cell will be relaxed fully.
  Unit cell relaxation: Analytical stress will be used.
  Analytical stress will be computed.
  Analytical stress calculation: Only the upper triangle is calculated.
                                 Final output is symmetrized.
  Analytical stress calculation: scf convergence accuracy of stress not set.
                                 Analytical stress self-consistency will not be checked explicitly.
                                 Be sure to set other criteria like sc_accuracy_rho tight enough.
 * Notice: The s.c.f. convergence criterion sc_accuracy_rho was not provided.
 * We used to stop in this case, and ask the user to provide reasonable
 * scf convergence criteria. However, this led some users to employ criteria
 * that led to extremely long run times, e.g., for simple relaxation.
 * We now preset a default value for sc_accuracy_rho if it is not set.
 * You may still wish to check if this setting is too tight or too loose for your needs.
 * Based on n_atoms, FHI-aims chose sc_accuracy_rho =  0.141421E-05 .
  Force calculation: scf convergence accuracy of forces not set.
  Defaulting to 'sc_accuracy_forces not_checked'.
  Handling of forces: Unphysical translation and rotation will be removed from forces.
  No accuracy limit for integral partition fn. given. Defaulting to  0.1000E-14.
  No threshold value for u(r) in integrations given. Defaulting to  0.1000E-05.
  No occupation type (smearing scheme) given. Defaulting to Gaussian broadening, width =  0.1000E-01 eV.
  The width will be adjusted in iteration number     3 of each s.c.f. cycle (i.e., each geometry step).
  S.C.F. convergence parameters will be adjusted in iteration number     3 of the first full s.c.f. cycle only.
  No accuracy for occupation numbers given. Defaulting to  0.1000E-12.
  No threshold value for occupation numbers given. Defaulting to  0.0000E+00.
  No accuracy for fermi level given. Defaulting to  0.1000E-19.
  Maximum # of iterations to find E_F not set. Defaulting to  200.
  Preferred method for the eigenvalue solver ('KS_method') not specified in 'control.in'.
  Defaulting to serial version, LAPACK (via ELSI), since more k-points than CPUs available.
  Will not use alltoall communication since running on < 1024 CPUs.
  Threshold for basis singularities not set.
  Default threshold for basis singularities:  0.1000E-04
  partition_type (choice of integration weights) for integrals was not specified.
  | Using a version of the partition function of Stratmann and coworkers ('stratmann_sparse').
  | At each grid point, the set of atoms used to build the partition table is smoothly restricted to
  | only those atoms whose free-atom density would be non-zero at that grid point.
  Partitioning for Hartree potential was not defined. Using partition_type for integrals.
  | Adjusted default value of keyword multip_moments_threshold to:       0.10000000E-11
  | This value may affect high angular momentum components of the Hartree potential in periodic systems.
  Angular momentum expansion for Kerker preconditioner not set explicitly.
  | Using default value of   0
  No explicit requirement for turning off preconditioner.
  | By default, it will be turned off when the charge convergence reaches
  | sc_accuracy_rho  =   0.141421E-05
  No special mixing parameter while Kerker preconditioner is on.
  Using default: charge_mix_param =     0.0500.
  No q(lm)/r^(l+1) cutoff set for long-range Hartree potential.
  | Using default value of  0.100000E-09 .
  | Verify using the multipole_threshold keyword.
  Defaulting to new monopole extrapolation.
  Density update method: automatic selection selected.
  Using density matrix based charge density update.
  Using density matrix based charge density update.
  Using packed matrix style: index .
  Geometry relaxation: A file "geometry.in.next_step" is written out by default after each step.
  | This file contains the geometry of the current relaxation step as well as
  | the current Hessian matrix needed to restart the relaxation algorithm.
  | If you do not want part or all of this information, use the keywords
  | "write_restart_geometry" or "hessian_to_restart_geometry" to switch the output off.
  Defaulting to use time-reversal symmetry for k-point grid.
  Charge integration errors on the 3D integration grid will be compensated
  by explicit normalization and distribution of residual charges.
  Use the "compensate_multipole_errors" flag to change this behaviour.
------------------------------------------------------------


------------------------------------------------------------
          Reading geometry description geometry.in.
------------------------------------------------------------
  Input structure read successfully.
  The structure contains       12 atoms,  and a total of        456.000 electrons.

  Input geometry:
  | Unit cell:
  |        5.84149640        0.00000000        0.00000000
  |        0.00000000        5.95249672        0.00000000
  |        0.00000000        0.00000000        7.49741726
  | Atomic structure:
  |       Atom                x [A]            y [A]            z [A]
  |    1: Species Pd            2.92709020        0.00643382        0.00642274
  |    2: Species Pd            0.00615261        0.00650221        3.75934409
  |    3: Species Pd            0.00680657        2.98291450        0.00691937
  |    4: Species Pd            2.92769502        2.98299040        3.75882759
  |    5: Species Se            3.57939941        0.70933856        3.02614002
  |    6: Species Se            5.19656488        5.25698438        6.77325057
  |    7: Species Se            0.65847462        2.28056572        4.48991672
  |    8: Species Se            2.27530023        3.68562876        0.73944530
  |    9: Species Se            2.27561848        5.25713665        4.48992594
  |   10: Species Se            0.65881238        0.70944427        0.73983059
  |   11: Species Se            5.19640827        3.68556805        3.02614482
  |   12: Species Se            3.57918549        2.28052310        6.77363017

  Lattice parameters for 3D lattice (in Angstroms) :     5.841496    5.952497    7.497417
  Angle(s) between unit vectors (in degrees)       :    90.000000   90.000000   90.000000

  | The smallest distance between any two atoms is         2.41153223 AA.
  | The first atom of this pair is atom number                      8 .
  | The second atom of this pair is atom number                    12 .
  | Wigner-Seitz cell of the first atom image          -1     1     0 .
  | (The Wigner-Seitz cell of the second atom is 0 0 0  by definition.)

  Symmetry information by spglib:
  | Precision set to  0.1E-04
  | Number of Operations  : 1
  | Space group           : 1
  | International         : P1       H
  | Schoenflies           : C1^1

  Quantities derived from the lattice vectors:
  | Reciprocal lattice vector 1:  1.075612  0.000000  0.000000
  | Reciprocal lattice vector 2:  0.000000  1.055555  0.000000
  | Reciprocal lattice vector 3:  0.000000  0.000000  0.838047
  | Unit cell volume                               :   0.260696E+03  A^3

  Range separation radius for Ewald summation (hartree_convergence_parameter):      4.00674586 bohr.

  Fractional coordinates:
                         L1                L2                L3
       atom_frac         0.50108568        0.00108086        0.00085666  Pd
       atom_frac         0.00105326        0.00109235        0.50141855  Pd
       atom_frac         0.00116521        0.50111989        0.00092290  Pd
       atom_frac         0.50118922        0.50113264        0.50134966  Pd
       atom_frac         0.61275385        0.11916656        0.40362433  Se
       atom_frac         0.88959481        0.88315620        0.90341118  Se
       atom_frac         0.11272362        0.38312759        0.59886179  Se
       atom_frac         0.38950640        0.61917359        0.09862667  Se
       atom_frac         0.38956088        0.88318178        0.59886302  Se
       atom_frac         0.11278144        0.11918432        0.09867806  Se
       atom_frac         0.88956800        0.61916339        0.40362497  Se
       atom_frac         0.61271723        0.38312043        0.90346181  Se

  Number of empty states per atom not set in control.in - providing a guess from actual geometry.
  | Total number of empty states used during s.c.f. cycle:       66
  If you use a very high smearing, use empty_states (per atom!) in control.in to increase this value.

  Structure-dependent array size parameters: 
  | Maximum number of distinct radial functions  :       27
  | Maximum number of basis functions            :      468
  | Number of Kohn-Sham states (occupied + empty):      294
------------------------------------------------------------

------------------------------------------------------------
          Preparing all fixed parts of the calculation.
------------------------------------------------------------
  Determining machine precision:
    2.225073858507201E-308
  Setting up grids for atomic and cluster calculations.

  Creating wave function, potential, and density for free atoms.

  Species: Pd

  List of occupied orbitals and eigenvalues:
    n    l              occ      energy [Ha]    energy [eV]
    1    0           2.0000      -913.269104    -24851.3168
    2    0           2.0000      -130.434372     -3549.2998
    3    0           2.0000       -23.521804      -640.0609
    4    0           2.0000        -3.256918       -88.6253
    5    0           1.0000        -0.157260        -4.2793
    2    1           6.0000      -116.910756     -3181.3035
    3    1           6.0000       -19.103344      -519.8284
    4    1           6.0000        -1.998052       -54.3697
    3    2          10.0000       -12.098182      -329.2083
    4    2           9.0000        -0.243389        -6.6230


  Species: Se

  List of occupied orbitals and eigenvalues:
    n    l              occ      energy [Ha]    energy [eV]
    1    0           2.0000      -466.337810    -12689.6975
    2    0           2.0000       -59.202598     -1610.9847
    3    0           2.0000        -7.847116      -213.5309
    4    0           2.0000        -0.634372       -17.2621
    2    1           6.0000       -52.061107     -1416.6548
    3    1           6.0000        -5.620941      -152.9536
    4    1           4.0000        -0.238469        -6.4891
    3    2          10.0000        -1.951949       -53.1152

  Creating fixed part of basis set: Ionic, confined, hydrogenic.
 
  Pd                   ion:

  List of free ionic orbitals and eigenvalues:
    n    l      energy [Ha]    energy [eV]
    1    0      -914.099884    -24873.9234
    2    0      -131.248265     -3571.4470
    3    0       -24.332473      -662.1203
    4    0        -4.059276      -110.4585
    2    1      -117.724296     -3203.4411
    3    1       -19.913908      -541.8850
    4    1        -2.795328       -76.0648
    3    2       -12.908733      -351.2645
    4    2        -1.004248       -27.3270


  List of ionic basis orbitals and eigenvalues:
    n    l      energy [Ha]    energy [eV]    outer radius [A]
    5    1        -0.516938       -14.0666       5.427025

 
  Pd                   hydrogenic:
 
  List of hydrogenic basis orbitals: 
    n    l      effective z      eigenvalue [eV]  inner max. [A]     outer max. [A]     outer radius [A]   
    4    3         8.000000       -54.4226           1.054686           1.054686           4.629581
    5    4        10.000000       -54.4226           1.330451           1.330451           5.043202
    3    0         2.600000        -9.8948           0.150992           2.606197           5.493778
    3    2         2.500000        -9.3396           1.873517           1.873517           5.493778
 
 
  Se                   ion:

  List of free ionic orbitals and eigenvalues:
    n    l      energy [Ha]    energy [eV]
    1    0      -467.261007    -12714.8189
    2    0       -60.104893     -1635.5374
    3    0        -8.743714      -237.9286
    4    0        -1.414053       -38.4783
    2    1       -52.964156     -1441.2280
    3    1        -6.516916      -177.3343
    4    1        -0.961869       -26.1738
    3    2        -2.844511       -77.4031


  List of ionic basis orbitals and eigenvalues:
    n    l      energy [Ha]    energy [eV]    outer radius [A]
    4    0        -1.414046       -38.4782       4.083166

 
  Se                   hydrogenic:
 
  List of hydrogenic basis orbitals: 
    n    l      effective z      eigenvalue [eV]  inner max. [A]     outer max. [A]     outer radius [A]   
    3    2         4.300000       -27.9518           1.103845           1.103845           5.278265
    2    1         1.600000        -8.6828           1.326010           1.326010           5.475439
    4    3         7.200000       -44.0822           1.173422           1.173422           4.965294
 

  Adding cutoff potential to free-atom effective potential.
  Creating atomic-like basis functions for current effective potential.

  Species Pd                  :

  List of atomic basis orbitals and eigenvalues:
    n    l      energy [Ha]    energy [eV]    outer radius [A]
    1    0      -913.269104    -24851.3168       0.223280
    2    0      -130.434372     -3549.2998       0.615909
    3    0       -23.521804      -640.0609       1.414312
    4    0        -3.256918       -88.6253       3.581357
    5    0        -0.157260        -4.2793       5.427025
    2    1      -116.910756     -3181.3035       0.631154
    3    1       -19.103344      -519.8284       1.540671
    4    1        -1.998052       -54.3697       4.408641
    3    2       -12.098182      -329.2083       1.806051
    4    2        -0.243389        -6.6230       5.361084


  Species Se                  :

  List of atomic basis orbitals and eigenvalues:
    n    l      energy [Ha]    energy [eV]    outer radius [A]
    1    0      -466.337810    -12689.6975       0.309561
    2    0       -59.202598     -1610.9847       0.885812
    3    0        -7.847116      -213.5309       2.355489
    4    0        -0.634372       -17.2621       5.214131
    2    1       -52.061107     -1416.6548       0.907737
    3    1        -5.620941      -152.9536       2.694529
    4    1        -0.238469        -6.4891       5.408909
    3    2        -1.951949       -53.1152       4.083166

  Assembling full basis from fixed parts.
  | Species Pd :   atomic orbital   1 s accepted.
  | Species Pd :   atomic orbital   2 s accepted.
  | Species Pd :   atomic orbital   3 s accepted.
  | Species Pd :   atomic orbital   4 s accepted.
  | Species Pd :   atomic orbital   5 s accepted.
  | Species Pd :    hydro orbital   3 s accepted.
  | Species Pd :   atomic orbital   2 p accepted.
  | Species Pd :   atomic orbital   3 p accepted.
  | Species Pd :   atomic orbital   4 p accepted.
  | Species Pd :    ionic orbital   5 p accepted.
  | Species Pd :   atomic orbital   3 d accepted.
  | Species Pd :   atomic orbital   4 d accepted.
  | Species Pd :    hydro orbital   3 d accepted.
  | Species Pd :    hydro orbital   4 f accepted.
  | Species Pd :    hydro orbital   5 g accepted.
  | Species Se :   atomic orbital   1 s accepted.
  | Species Se :   atomic orbital   2 s accepted.
  | Species Se :   atomic orbital   3 s accepted.
  | Species Se :    ionic orbital   4 s accepted.
  | Species Se :   atomic orbital   4 s accepted.
  | Species Se :   atomic orbital   2 p accepted.
  | Species Se :   atomic orbital   3 p accepted.
  | Species Se :   atomic orbital   4 p accepted.
  | Species Se :    hydro orbital   2 p accepted.
  | Species Se :   atomic orbital   3 d accepted.
  | Species Se :    hydro orbital   3 d accepted.
  | Species Se :    hydro orbital   4 f accepted.
 
  Basis size parameters after reduction:
  | Total number of radial functions:       27
  | Total number of basis functions :      468
 
  Per-task memory consumption for arrays in subroutine allocate_ext:
  |           9.993344MB.
  Testing on-site integration grid accuracy.
  |  Species  Function  <phi|h_atom|phi> (log., in eV)  <phi|h_atom|phi> (rad., in eV)
           1        1             -24851.3167505682             -24851.3148165635
           1        2              -3549.2998457785              -3549.2998098031
           1        3               -640.0608571327               -640.0608534886
           1        4                -88.6252603131                -88.6252593316
           1        5                 -4.2849374515                 -4.2849400622
           1        6                  4.9432123540                  4.9432188418
           1        7              -3181.3035399559              -3181.3035364574
           1        8               -519.8284281886               -519.8284264063
           1        9                -54.3697495804                -54.3697489261
           1       10                  0.8628369484                  0.8628370487
           1       11               -329.2082917394               -329.2082912864
           1       12                 -6.6230267036                 -6.6230265076
           1       13                  5.4924295291                  5.4924115607
           1       14                 25.0740861942                 25.0740861175
           1       15                 38.8271273823                 38.8271278029
           2       16             -12689.6974611609             -12689.6967666984
           2       17              -1610.9846578580              -1610.9846472470
           2       18               -213.5308789869               -213.5308777267
           2       19                -17.0464428502                -17.0464426496
           2       20                  6.7356859379                  6.7356842047
           2       21              -1416.6548010133              -1416.6548002108
           2       22               -152.9535734377               -152.9535727493
           2       23                 -6.4896265677                 -6.4896303794
           2       24                  5.2703037283                  5.2701679583
           2       25                -53.1152220964                -53.1152219035
           2       26                  7.6186674138                  7.6186665630
           2       27                 23.1072799052                 23.1072803137

  Preparing densities etc. for the partition functions (integrals / Hartree potential).

  Preparations completed.
  max(cpu_time)          :      0.553 s.
  Wall clock time (cpu1) :      0.602 s.
------------------------------------------------------------

------------------------------------------------------------
          Begin self-consistency loop: Initialization.

          Date     :  20200420, Time     :  113500.620
------------------------------------------------------------

  Initializing index lists of integration centers etc. from given atomic structure:
  Mapping all atomic coordinates to central unit cell.

  Initializing the k-points
  Using symmetry for reducing the k-points
  | k-points reduced from:      294 to      148
  | Number of k-points                             :       148
  The eigenvectors in the calculations are COMPLEX.
  | K-points in task   0:         6
  | K-points in task   1:         7
  | K-points in task   2:         7
  | K-points in task   3:         7
  | K-points in task   4:         7
  | K-points in task   5:         6
  | K-points in task   6:         6
  | K-points in task   7:         6
  | K-points in task   8:         6
  | K-points in task   9:         6
  | K-points in task  10:         6
  | K-points in task  11:         6
  | K-points in task  12:         6
  | K-points in task  13:         6
  | K-points in task  14:         6
  | K-points in task  15:         6
  | K-points in task  16:         6
  | K-points in task  17:         6
  | K-points in task  18:         6
  | K-points in task  19:         6
  | K-points in task  20:         6
  | K-points in task  21:         6
  | K-points in task  22:         6
  | K-points in task  23:         6
  | Number of basis functions in the Hamiltonian integrals :      5582
  | Number of basis functions in a single unit cell        :       468
  | Number of centers in hartree potential         :      1311
  | Number of centers in hartree multipole         :       766
  | Number of centers in electron density summation:       595
  | Number of centers in basis integrals           :       639
  | Number of centers in integrals                 :       235
  | Number of centers in hamiltonian               :       595
  | Consuming        198 KiB for k_phase.
  | Number of super-cells (origin) [n_cells]                     :         567
  | Number of super-cells (after PM_index) [n_cells]             :          86
  | Number of super-cells in hamiltonian [n_cells_in_hamiltonian]:          86
  | Size of matrix packed + index [n_hamiltonian_matrix_size] :     1286753

  Initializing relaxation algorithms.
  | Estimated reciprocal-space cutoff momentum G_max:         2.42369928 bohr^-1 .
  | Reciprocal lattice points for long-range Hartree potential:     418
  Partitioning the integration grid into batches with parallel hashing+maxmin method.
  | Number of batches:     4192
  | Maximal batch size:     109
  | Minimal batch size:      49
  | Average batch size:      91.635
  | Standard deviation of batch sizes:      11.815

  Integration load balanced across    24 MPI tasks.
  Work distribution over tasks is as follows:
  Task     0 has      16033 integration points.
  Task     1 has      15987 integration points.
  Task     2 has      15965 integration points.
  Task     3 has      16028 integration points.
  Task     4 has      16030 integration points.
  Task     5 has      16025 integration points.
  Task     6 has      15986 integration points.
  Task     7 has      16030 integration points.
  Task     8 has      16033 integration points.
  Task     9 has      15990 integration points.
  Task    10 has      16036 integration points.
  Task    11 has      16025 integration points.
  Task    12 has      15961 integration points.
  Task    13 has      16027 integration points.
  Task    14 has      15992 integration points.
  Task    15 has      15966 integration points.
  Task    16 has      16030 integration points.
  Task    17 has      16033 integration points.
  Task    18 has      15961 integration points.
  Task    19 has      16028 integration points.
  Task    20 has      15961 integration points.
  Task    21 has      15987 integration points.
  Task    22 has      16030 integration points.
  Task    23 has      15992 integration points.
  Initializing partition tables, free-atom densities, potentials, etc. across the integration grid (initialize_grid_storage).
  | initialize_grid_storage: Actual outermost partition radius vs. multipole_radius_free
  | (-- VB: in principle, multipole_radius_free should be larger, hence this output)
  | Species        1: Confinement radius =              6.000000000000000 AA, multipole_radius_free =              6.058219618167466 AA.
  | Species        1: outer_partition_radius set to              6.058219618167466 AA .
  | Species        2: Confinement radius =              6.000000000000000 AA, multipole_radius_free =              6.037996416842453 AA.
  | Species        2: outer_partition_radius set to              6.037996416842453 AA .
  | The sparse table of interatomic distances needs       2886.98 kbyte instead of      3266.57 kbyte of memory.
  | Net number of integration points:   384136
  | of which are non-zero points    :   322287
  | Numerical average free-atom electrostatic potential    :    -16.98695738 eV
  Renormalizing the initial density to the exact electron count on the 3D integration grid.
  | Initial density: Formal number of electrons (from input files) :     456.0000000000
  | Integrated number of electrons on 3D grid     :     456.0000481079
  | Charge integration error                      :       0.0000481079
  | Normalization factor for density and gradient :       0.9999998945
  Renormalizing the free-atom superposition density to the exact electron count on the 3D integration grid.
  | Formal number of electrons (from input files) :     456.0000000000
  | Integrated number of electrons on 3D grid     :     456.0000481079
  | Charge integration error                      :       0.0000481079
  | Normalization factor for density and gradient :       0.9999998945
  Obtaining max. number of non-zero basis functions in each batch (get_n_compute_maxes).
  | Maximal number of non-zero basis functions:     1021 in task     0
  | Maximal number of non-zero basis functions:      997 in task     1
  | Maximal number of non-zero basis functions:     1029 in task     2
  | Maximal number of non-zero basis functions:     1023 in task     3
  | Maximal number of non-zero basis functions:     1024 in task     4
  | Maximal number of non-zero basis functions:     1003 in task     5
  | Maximal number of non-zero basis functions:      999 in task     6
  | Maximal number of non-zero basis functions:     1026 in task     7
  | Maximal number of non-zero basis functions:     1012 in task     8
  | Maximal number of non-zero basis functions:     1008 in task     9
  | Maximal number of non-zero basis functions:     1018 in task    10
  | Maximal number of non-zero basis functions:     1024 in task    11
  | Maximal number of non-zero basis functions:     1018 in task    12
  | Maximal number of non-zero basis functions:     1039 in task    13
  | Maximal number of non-zero basis functions:     1038 in task    14
  | Maximal number of non-zero basis functions:     1021 in task    15
  | Maximal number of non-zero basis functions:     1015 in task    16
  | Maximal number of non-zero basis functions:     1019 in task    17
  | Maximal number of non-zero basis functions:     1008 in task    18
  | Maximal number of non-zero basis functions:     1023 in task    19
  | Maximal number of non-zero basis functions:     1013 in task    20
  | Maximal number of non-zero basis functions:     1017 in task    21
  | Maximal number of non-zero basis functions:     1017 in task    22
  | Maximal number of non-zero basis functions:     1030 in task    23
  Allocating       12.597 MB for KS_eigenvector_complex
  Integrating Hamiltonian matrix: batch-based integration.
  Time summed over all CPUs for integration: real work       63.633 s, elapsed       66.118 s
  Integrating overlap matrix.
  Time summed over all CPUs for integration: real work       45.868 s, elapsed       46.681 s
  Decreasing sparse matrix size:
  | Tolerance:  0.1000E-12
  Hamiltonian matrix
  | Array has  1113438 nonzero elements out of  1286753 elements
  | Sparsity factor is 0.135
  Overlap matrix
  | Array has  1029077 nonzero elements out of  1286753 elements
  | Sparsity factor is 0.200
  New size of hamiltonian matrix:     1113527

  Updating Kohn-Sham eigenvalues and eigenvectors using ELSI and the (modified) LAPACK eigensolver.
  Singularity check in k-point 24, task 0 (analysis for other k-points/tasks may follow below):
  Overlap matrix is not singular
  | Lowest and highest eigenvalues :  0.5617E-03,  0.7238E+01
  Finished singularity check of overlap matrix
  | Time :     0.090 s
  Starting LAPACK eigensolver
  Finished Cholesky decomposition
  | Time :     0.022 s
  Finished transformation to standard eigenproblem
  | Time :     0.021 s
  Finished solving standard eigenproblem
  | Time :     0.073 s
  Finished back-transformation of eigenvectors
  | Time :     0.009 s

  Obtaining occupation numbers and chemical potential using ELSI.
  | Chemical potential (Fermi level):    -4.65020562 eV
  Writing Kohn-Sham eigenvalues.
  K-point:       1 at    0.000000    0.000000    0.000000 (in units of recip. lattice)

  State    Occupation    Eigenvalue [Ha]    Eigenvalue [eV]
      1       2.00000        -913.279539       -24851.60069
      2       2.00000        -913.279539       -24851.60069
      3       2.00000        -913.279539       -24851.60069
      4       2.00000        -913.279533       -24851.60053
      5       2.00000        -466.350262       -12690.03630
      6       2.00000        -466.350258       -12690.03618
      7       2.00000        -466.350257       -12690.03616
      8       2.00000        -466.350257       -12690.03615
      9       2.00000        -466.350253       -12690.03604
     10       2.00000        -466.350249       -12690.03594
     11       2.00000        -466.350249       -12690.03593
     12       2.00000        -466.350245       -12690.03582
     13       2.00000        -130.445124        -3549.59242
     14       2.00000        -130.445124        -3549.59241
     15       2.00000        -130.445123        -3549.59241
     16       2.00000        -130.445118        -3549.59225
     17       2.00000        -116.921532        -3181.59677
     18       2.00000        -116.921532        -3181.59676
     19       2.00000        -116.921532        -3181.59676
     20       2.00000        -116.921526        -3181.59660
     21       2.00000        -116.921523        -3181.59652
     22       2.00000        -116.921523        -3181.59652
     23       2.00000        -116.921523        -3181.59652
     24       2.00000        -116.921517        -3181.59636
     25       2.00000        -116.921468        -3181.59503
     26       2.00000        -116.921468        -3181.59503
     27       2.00000        -116.921468        -3181.59502
     28       2.00000        -116.921462        -3181.59487
     29       2.00000         -59.215475        -1611.33506
     30       2.00000         -59.215471        -1611.33494
     31       2.00000         -59.215470        -1611.33492
     32       2.00000         -59.215469        -1611.33491
     33       2.00000         -59.215465        -1611.33479
     34       2.00000         -59.215461        -1611.33469
     35       2.00000         -59.215461        -1611.33468
     36       2.00000         -59.215457        -1611.33458
     37       2.00000         -52.073992        -1417.00543
     38       2.00000         -52.073988        -1417.00531
     39       2.00000         -52.073987        -1417.00529
     40       2.00000         -52.073987        -1417.00528
     41       2.00000         -52.073983        -1417.00516
     42       2.00000         -52.073979        -1417.00506
     43       2.00000         -52.073979        -1417.00505
     44       2.00000         -52.073975        -1417.00495
     45       2.00000         -52.073966        -1417.00470
     46       2.00000         -52.073961        -1417.00458
     47       2.00000         -52.073961        -1417.00456
     48       2.00000         -52.073960        -1417.00455
     49       2.00000         -52.073956        -1417.00444
     50       2.00000         -52.073952        -1417.00433
     51       2.00000         -52.073952        -1417.00433
     52       2.00000         -52.073948        -1417.00422
     53       2.00000         -52.073918        -1417.00341
     54       2.00000         -52.073914        -1417.00329
     55       2.00000         -52.073913        -1417.00327
     56       2.00000         -52.073913        -1417.00326
     57       2.00000         -52.073908        -1417.00314
     58       2.00000         -52.073905        -1417.00304
     59       2.00000         -52.073904        -1417.00303
     60       2.00000         -52.073900        -1417.00293
     61       2.00000         -23.533320         -640.37422
     62       2.00000         -23.533320         -640.37422
     63       2.00000         -23.533320         -640.37421
     64       2.00000         -23.533313         -640.37404
     65       2.00000         -19.115118         -520.14883
     66       2.00000         -19.115118         -520.14883
     67       2.00000         -19.115118         -520.14882
     68       2.00000         -19.115112         -520.14865
     69       2.00000         -19.115030         -520.14644
     70       2.00000         -19.115030         -520.14644
     71       2.00000         -19.115030         -520.14643
     72       2.00000         -19.115024         -520.14626
     73       2.00000         -19.114486         -520.13163
     74       2.00000         -19.114486         -520.13163
     75       2.00000         -19.114486         -520.13162
     76       2.00000         -19.114480         -520.13146
     77       2.00000         -12.109926         -329.52785
     78       2.00000         -12.109926         -329.52785
     79       2.00000         -12.109926         -329.52784
     80       2.00000         -12.109919         -329.52768
     81       2.00000         -12.109890         -329.52688
     82       2.00000         -12.109890         -329.52688
     83       2.00000         -12.109890         -329.52687
     84       2.00000         -12.109884         -329.52670
     85       2.00000         -12.109540         -329.51734
     86       2.00000         -12.109539         -329.51733
     87       2.00000         -12.109539         -329.51733
     88       2.00000         -12.109533         -329.51716
     89       2.00000         -12.109483         -329.51580
     90       2.00000         -12.109483         -329.51580
     91       2.00000         -12.109483         -329.51579
     92       2.00000         -12.109477         -329.51563
     93       2.00000         -12.109398         -329.51349
     94       2.00000         -12.109398         -329.51349
     95       2.00000         -12.109398         -329.51348
     96       2.00000         -12.109392         -329.51332
     97       2.00000          -7.861775         -213.92978
     98       2.00000          -7.861770         -213.92965
     99       2.00000          -7.861769         -213.92963
    100       2.00000          -7.861769         -213.92961
    101       2.00000          -7.861762         -213.92944
    102       2.00000          -7.861758         -213.92932
    103       2.00000          -7.861758         -213.92932
    104       2.00000          -7.861754         -213.92920
    105       2.00000          -5.636195         -153.36868
    106       2.00000          -5.636190         -153.36852
    107       2.00000          -5.636189         -153.36852
    108       2.00000          -5.636189         -153.36849
    109       2.00000          -5.636184         -153.36837
    110       2.00000          -5.636179         -153.36825
    111       2.00000          -5.636179         -153.36824
    112       2.00000          -5.636175         -153.36813
    113       2.00000          -5.635929         -153.36143
    114       2.00000          -5.635924         -153.36130
    115       2.00000          -5.635924         -153.36128
    116       2.00000          -5.635921         -153.36121
    117       2.00000          -5.635859         -153.35954
    118       2.00000          -5.635855         -153.35941
    119       2.00000          -5.635854         -153.35940
    120       2.00000          -5.635851         -153.35930
    121       2.00000          -5.635265         -153.34337
    122       2.00000          -5.635261         -153.34326
    123       2.00000          -5.635260         -153.34323
    124       2.00000          -5.635260         -153.34323
    125       2.00000          -5.635254         -153.34306
    126       2.00000          -5.635250         -153.34296
    127       2.00000          -5.635250         -153.34295
    128       2.00000          -5.635246         -153.34283
    129       2.00000          -3.273994          -89.08991
    130       2.00000          -3.273994          -89.08990
    131       2.00000          -3.273992          -89.08986
    132       2.00000          -3.273984          -89.08964
    133       2.00000          -2.020353          -54.97659
    134       2.00000          -2.020348          -54.97646
    135       2.00000          -2.020322          -54.97577
    136       2.00000          -2.020315          -54.97558
    137       2.00000          -2.019344          -54.94915
    138       2.00000          -2.019339          -54.94900
    139       2.00000          -2.019302          -54.94801
    140       2.00000          -2.019296          -54.94783
    141       2.00000          -2.013015          -54.77693
    142       2.00000          -2.013014          -54.77689
    143       2.00000          -2.013011          -54.77683
    144       2.00000          -2.013005          -54.77664
    145       2.00000          -1.969177          -53.58404
    146       2.00000          -1.969172          -53.58390
    147       2.00000          -1.969148          -53.58325
    148       2.00000          -1.969144          -53.58313
    149       2.00000          -1.968151          -53.55610
    150       2.00000          -1.968144          -53.55593
    151       2.00000          -1.968128          -53.55549
    152       2.00000          -1.968126          -53.55544
    153       2.00000          -1.967747          -53.54512
    154       2.00000          -1.967741          -53.54496
    155       2.00000          -1.967731          -53.54467
    156       2.00000          -1.967725          -53.54451
    157       2.00000          -1.967591          -53.54088
    158       2.00000          -1.967588          -53.54080
    159       2.00000          -1.967581          -53.54060
    160       2.00000          -1.967576          -53.54048
    161       2.00000          -1.967318          -53.53345
    162       2.00000          -1.967311          -53.53326
    163       2.00000          -1.967292          -53.53275
    164       2.00000          -1.967285          -53.53254
    165       2.00000          -1.967259          -53.53184
    166       2.00000          -1.967251          -53.53163
    167       2.00000          -1.967235          -53.53118
    168       2.00000          -1.967231          -53.53109
    169       2.00000          -1.967196          -53.53013
    170       2.00000          -1.967183          -53.52977
    171       2.00000          -1.967181          -53.52971
    172       2.00000          -1.967179          -53.52966
    173       2.00000          -1.967176          -53.52958
    174       2.00000          -1.967172          -53.52948
    175       2.00000          -1.967169          -53.52940
    176       2.00000          -1.967162          -53.52920
    177       2.00000          -1.966634          -53.51483
    178       2.00000          -1.966632          -53.51477
    179       2.00000          -1.966623          -53.51453
    180       2.00000          -1.966618          -53.51441
    181       2.00000          -1.966290          -53.50547
    182       2.00000          -1.966283          -53.50528
    183       2.00000          -1.966279          -53.50517
    184       2.00000          -1.966275          -53.50505
    185       2.00000          -0.759026          -20.65414
    186       2.00000          -0.740813          -20.15856
    187       2.00000          -0.719936          -19.59046
    188       2.00000          -0.718306          -19.54611
    189       2.00000          -0.652846          -17.76485
    190       2.00000          -0.640803          -17.43714
    191       2.00000          -0.639260          -17.39516
    192       2.00000          -0.627831          -17.08416
    193       2.00000          -0.418572          -11.38992
    194       2.00000          -0.410685          -11.17532
    195       2.00000          -0.388839          -10.58086
    196       2.00000          -0.376770          -10.25243
    197       2.00000          -0.370384          -10.07867
    198       2.00000          -0.368638          -10.03114
    199       2.00000          -0.366938           -9.98490
    200       2.00000          -0.366311           -9.96783
    201       2.00000          -0.365223           -9.93823
    202       2.00000          -0.363392           -9.88840
    203       2.00000          -0.360700           -9.81515
    204       2.00000          -0.351697           -9.57017
    205       2.00000          -0.341272           -9.28649
    206       2.00000          -0.330433           -8.99153
    207       2.00000          -0.323504           -8.80300
    208       2.00000          -0.316001           -8.59883
    209       2.00000          -0.315431           -8.58331
    210       2.00000          -0.306211           -8.33243
    211       2.00000          -0.288631           -7.85404
    212       2.00000          -0.286298           -7.79056
    213       2.00000          -0.284937           -7.75352
    214       2.00000          -0.280215           -7.62505
    215       2.00000          -0.278971           -7.59118
    216       2.00000          -0.277267           -7.54482
    217       2.00000          -0.276355           -7.52000
    218       2.00000          -0.275409           -7.49426
    219       2.00000          -0.273658           -7.44662
    220       2.00000          -0.270441           -7.35908
    221       2.00000          -0.265022           -7.21162
    222       2.00000          -0.263156           -7.16083
    223       2.00000          -0.262882           -7.15338
    224       2.00000          -0.257239           -6.99982
    225       2.00000          -0.224944           -6.12103
    226       2.00000          -0.215845           -5.87343
    227       2.00000          -0.213510           -5.80990
    228       0.00000          -0.166869           -4.54074
    229       0.00000          -0.152377           -4.14639
    230       0.00000          -0.135569           -3.68901
    231       0.00000          -0.130144           -3.54141
    232       0.00000          -0.129851           -3.53343
    233       0.00000          -0.126627           -3.44571
    234       0.00000          -0.116423           -3.16804
    235       0.00000          -0.114777           -3.12323
    236       0.00000          -0.081891           -2.22838
    237       0.00000          -0.037639           -1.02420
    238       0.00000          -0.031498           -0.85711
    239       0.00000          -0.005063           -0.13778
    240       0.00000           0.019265            0.52421
    241       0.00000           0.024602            0.66947
    242       0.00000           0.025402            0.69122
    243       0.00000           0.055748            1.51697
    244       0.00000           0.089087            2.42417
    245       0.00000           0.104037            2.83100
    246       0.00000           0.111173            3.02518
    247       0.00000           0.119276            3.24568
    248       0.00000           0.121859            3.31595
    249       0.00000           0.125906            3.42608
    250       0.00000           0.126579            3.44439
    251       0.00000           0.136248            3.70750
    252       0.00000           0.151065            4.11070
    253       0.00000           0.161909            4.40576
    254       0.00000           0.172951            4.70625
    255       0.00000           0.177018            4.81690
    256       0.00000           0.189823            5.16535
    257       0.00000           0.190864            5.19366
    258       0.00000           0.196754            5.35396
    259       0.00000           0.219222            5.96533
    260       0.00000           0.232528            6.32740
    261       0.00000           0.247860            6.74461
    262       0.00000           0.257663            7.01135
    263       0.00000           0.266665            7.25633
    264       0.00000           0.281128            7.64987
    265       0.00000           0.281207            7.65203
[...]
  Renormalizing the density to the exact electron count on the 3D integration grid.
  | Formal number of electrons (from input files) :     456.0000000000
  | Integrated number of electrons on 3D grid     :     456.0000114031
  | Charge integration error                      :       0.0000114031
  | Normalization factor for density and gradient :       0.9999999750

  Evaluating partitioned Hartree potential by multipole expansion.
  | Original multipole sum: apparent total charge =   0.681194E-12
  | Sum of charges compensated after spline to logarithmic grids =   0.833936E-07
  | Analytical far-field extrapolation by fixed multipoles:
  | Hartree multipole sum: apparent total charge =   0.680712E-12
  Summing up the Hartree potential.
  Time summed over all CPUs for potential: real work       39.915 s, elapsed       40.884 s
  | RMS charge density error from multipole expansion :   0.758772E-02
  | Average real-space part of the electrostatic potential :     -0.01045963 eV

  Integrating Hamiltonian matrix: batch-based integration.
  Time summed over all CPUs for integration: real work       62.528 s, elapsed       63.799 s

  Updating Kohn-Sham eigenvalues and eigenvectors using ELSI and the (modified) LAPACK eigensolver.
  Starting LAPACK eigensolver
  Finished Cholesky decomposition
  | Time :     0.011 s
  Finished transformation to standard eigenproblem
  | Time :     0.020 s
  Finished solving standard eigenproblem
  | Time :     0.069 s
  Finished back-transformation of eigenvectors
  | Time :     0.009 s

  Obtaining occupation numbers and chemical potential using ELSI.
  | Chemical potential (Fermi level):    -4.85695256 eV
  What follows are estimated values for band gap, HOMO, LUMO, etc.
  | They are estimated on a discrete k-point grid and not necessarily exact.
  | For converged numbers, create a DOS and/or band structure plot on a denser k-grid.

  Highest occupied state (VBM) at     -4.85755501 eV (relative to internal zero)
  | Occupation number:      1.01359505
  | K-point:      76 at    0.285714    0.571429    0.833333 (in units of recip. lattice)

  Lowest unoccupied state (CBM) at    -4.84962924 eV (relative to internal zero)
  | Occupation number:      0.83590456
  | K-point:     101 at    0.428571    0.428571    0.166667 (in units of recip. lattice)

  ESTIMATED overall HOMO-LUMO gap:      0.00792577 eV between HOMO at k-point 76 and LUMO at k-point 101
  | This appears to be an indirect band gap.
  | Smallest direct gap :      0.19954570 eV for k_point 73 at    0.428571    0.428571    0.166667 (in units of recip. lattice)
  However, this system has fractional occupation numbers. Since we use a finite k-point grid,
  this material is metallic within the approximate finite broadening function (occupation_type)
  applied to determine the occupation numbers.

  Total energy components:
  | Sum of eigenvalues            :      -23864.35853859 Ha     -649382.23603945 eV
  | XC energy correction          :       -1284.32443535 Ha      -34948.24603297 eV
  | XC potential correction       :        1672.89838630 Ha       45521.88121914 eV
  | Free-atom electrostatic energy:      -16511.30533463 Ha     -449295.47805762 eV
  | Hartree energy correction     :           7.18512395 Ha         195.51717050 eV
  | vdW energy correction         :           0.00000000 Ha           0.00000000 eV
  | Entropy correction            :          -0.00004436 Ha          -0.00120698 eV
  | ---------------------------
  | Total energy                  :      -39979.90479832 Ha    -1087908.56174040 eV
  | Total energy, T -> 0          :      -39979.90484267 Ha    -1087908.56294737 eV  <-- do not rely on this value for anything but (periodic) metals
  | Electronic free energy        :      -39979.90488703 Ha    -1087908.56415435 eV

  Derived energy quantities:
  | Kinetic energy                :       41145.64087635 Ha     1119629.85438525 eV
  | Electrostatic energy          :      -79841.22123932 Ha    -2172590.17009268 eV
  | Energy correction for multipole
  | error in Hartree potential    :          -0.00519670 Ha          -0.14140933 eV
  | Sum of eigenvalues per atom                           :      -54115.18633662 eV
  | Total energy (T->0) per atom                          :      -90659.04691228 eV  <-- do not rely on this value for anything but (periodic) metals
  | Electronic free energy per atom                       :      -90659.04701286 eV

  Self-consistency convergence accuracy:
  | Change of charge density      :  0.2369E-03
  | Change of sum of eigenvalues  : -0.2809E+00 eV
  | Change of total energy        : -0.1063E-05 eV

  End self-consistency iteration #    14       :  max(cpu_time)    wall_clock(cpu1)
  | Time for this iteration                    :       11.485 s          11.485 s
  | Charge density update                      :        5.265 s           5.264 s
  | Density mixing & preconditioning           :        0.806 s           0.806 s
  | Hartree multipole update                   :        0.004 s           0.005 s
  | Hartree multipole summation                :        1.723 s           1.723 s
  | Integration                                :        2.685 s           2.685 s
  | Solution of K.-S. eqns.                    :        0.999 s           0.999 s
  | Total energy evaluation                    :        0.001 s           0.001 s

  Partial memory accounting:
  | Current value for overall tracked memory usage:
  |   Minimum:       33.922 MB (on task  0)
  |   Maximum:       36.021 MB (on task  1)
  |   Average:       34.272 MB
  | Peak value for overall tracked memory usage:
  |   Minimum:       47.355 MB (on task  6 after allocating wave)
  |   Maximum:       49.994 MB (on task  2 after allocating wave)
  |   Average:       48.053 MB
  | Largest tracked array allocation so far:
  |   Minimum:       12.597 MB (KS_eigenvector_complex on task  0)
  |   Maximum:       14.696 MB (KS_eigenvector_complex on task  1)
  |   Average:       12.947 MB
  Note:  These values currently only include a subset of arrays which are explicitly tracked.
  The "true" memory usage will be greater.
------------------------------------------------------------

------------------------------------------------------------
          Begin self-consistency iteration #   15

  Date     :  20200420, Time     :  113749.080
------------------------------------------------------------
  Evaluating new KS density using the density matrix
  Evaluating density matrix
  Time summed over all CPUs for getting density from density matrix: real work      120.599 s, elapsed      121.938 s
  Integration grid: deviation in total charge (<rho> - N_e) =   9.555379E-11
  Pulay mixing of updated and previous charge densities.
  Renormalizing the density to the exact electron count on the 3D integration grid.
  | Formal number of electrons (from input files) :     456.0000000000
  | Integrated number of electrons on 3D grid     :     455.9999981980
  | Charge integration error                      :      -0.0000018020
  | Normalization factor for density and gradient :       1.0000000040

  Evaluating partitioned Hartree potential by multipole expansion.
  | Original multipole sum: apparent total charge =   0.498479E-12
  | Sum of charges compensated after spline to logarithmic grids =   0.834257E-07
  | Analytical far-field extrapolation by fixed multipoles:
  | Hartree multipole sum: apparent total charge =   0.498501E-12
  Summing up the Hartree potential.
  Time summed over all CPUs for potential: real work       39.922 s, elapsed       40.865 s
  | RMS charge density error from multipole expansion :   0.758774E-02
  | Average real-space part of the electrostatic potential :     -0.01045577 eV

  Integrating Hamiltonian matrix: batch-based integration.
  Time summed over all CPUs for integration: real work       62.557 s, elapsed       63.798 s

  Updating Kohn-Sham eigenvalues and eigenvectors using ELSI and the (modified) LAPACK eigensolver.
  Starting LAPACK eigensolver
  Finished Cholesky decomposition
  | Time :     0.011 s
  Finished transformation to standard eigenproblem
  | Time :     0.020 s
  Finished solving standard eigenproblem
  | Time :     0.070 s
  Finished back-transformation of eigenvectors
  | Time :     0.008 s

  Obtaining occupation numbers and chemical potential using ELSI.
  | Chemical potential (Fermi level):    -4.85692644 eV
  What follows are estimated values for band gap, HOMO, LUMO, etc.
  | They are estimated on a discrete k-point grid and not necessarily exact.
  | For converged numbers, create a DOS and/or band structure plot on a denser k-grid.

  Highest occupied state (VBM) at     -4.85753029 eV (relative to internal zero)
  | Occupation number:      1.01362680
  | K-point:      76 at    0.285714    0.571429    0.833333 (in units of recip. lattice)

  Lowest unoccupied state (CBM) at    -4.84959910 eV (relative to internal zero)
  | Occupation number:      0.83581575
  | K-point:     101 at    0.428571    0.428571    0.166667 (in units of recip. lattice)

  ESTIMATED overall HOMO-LUMO gap:      0.00793119 eV between HOMO at k-point 76 and LUMO at k-point 101
  | This appears to be an indirect band gap.
  | Smallest direct gap :      0.19954539 eV for k_point 73 at    0.428571    0.428571    0.166667 (in units of recip. lattice)
  However, this system has fractional occupation numbers. Since we use a finite k-point grid,
  this material is metallic within the approximate finite broadening function (occupation_type)
  applied to determine the occupation numbers.

  Total energy components:
  | Sum of eigenvalues            :      -23864.35808240 Ha     -649382.22362596 eV
  | XC energy correction          :       -1284.32444956 Ha      -34948.24641966 eV
  | XC potential correction       :        1672.89840516 Ha       45521.88173214 eV
  | Free-atom electrostatic energy:      -16511.30533463 Ha     -449295.47805762 eV
  | Hartree energy correction     :           7.18466312 Ha         195.50463064 eV
  | vdW energy correction         :           0.00000000 Ha           0.00000000 eV
  | Entropy correction            :          -0.00004436 Ha          -0.00120696 eV
  | ---------------------------
  | Total energy                  :      -39979.90479832 Ha    -1087908.56174046 eV
  | Total energy, T -> 0          :      -39979.90484267 Ha    -1087908.56294742 eV  <-- do not rely on this value for anything but (periodic) metals
  | Electronic free energy        :      -39979.90488703 Ha    -1087908.56415439 eV

  Derived energy quantities:
  | Kinetic energy                :       41145.64097861 Ha     1119629.85716794 eV
  | Electrostatic energy          :      -79841.22132737 Ha    -2172590.17248874 eV
  | Energy correction for multipole
  | error in Hartree potential    :          -0.00519673 Ha          -0.14141020 eV
  | Sum of eigenvalues per atom                           :      -54115.18530216 eV
  | Total energy (T->0) per atom                          :      -90659.04691229 eV  <-- do not rely on this value for anything but (periodic) metals
  | Electronic free energy per atom                       :      -90659.04701287 eV

  Self-consistency convergence accuracy:
  | Change of charge density      :  0.5965E-04
  | Change of sum of eigenvalues  :  0.1241E-01 eV
  | Change of total energy        : -0.6395E-07 eV

  End self-consistency iteration #    15       :  max(cpu_time)    wall_clock(cpu1)
  | Time for this iteration                    :       11.471 s          11.472 s
  | Charge density update                      :        5.253 s           5.253 s
  | Density mixing & preconditioning           :        0.806 s           0.806 s
  | Hartree multipole update                   :        0.004 s           0.005 s
  | Hartree multipole summation                :        1.722 s           1.722 s
  | Integration                                :        2.685 s           2.685 s
  | Solution of K.-S. eqns.                    :        0.998 s           0.998 s
  | Total energy evaluation                    :        0.001 s           0.001 s

  Partial memory accounting:
  | Current value for overall tracked memory usage:
  |   Minimum:       33.922 MB (on task  0)
  |   Maximum:       36.021 MB (on task  1)
  |   Average:       34.272 MB
  | Peak value for overall tracked memory usage:
  |   Minimum:       47.355 MB (on task  6 after allocating wave)
  |   Maximum:       49.994 MB (on task  2 after allocating wave)
  |   Average:       48.053 MB
  | Largest tracked array allocation so far:
  |   Minimum:       12.597 MB (KS_eigenvector_complex on task  0)
  |   Maximum:       14.696 MB (KS_eigenvector_complex on task  1)
  |   Average:       12.947 MB
  Note:  These values currently only include a subset of arrays which are explicitly tracked.
  The "true" memory usage will be greater.
------------------------------------------------------------

------------------------------------------------------------
          Begin self-consistency iteration #   16

  Date     :  20200420, Time     :  113800.552
------------------------------------------------------------
  Evaluating new KS density using the density matrix
  Evaluating density matrix
  Time summed over all CPUs for getting density from density matrix: real work      120.563 s, elapsed      121.975 s
  Integration grid: deviation in total charge (<rho> - N_e) =   9.555379E-11
  Pulay mixing of updated and previous charge densities.
  Renormalizing the density to the exact electron count on the 3D integration grid.
  | Formal number of electrons (from input files) :     456.0000000000
  | Integrated number of electrons on 3D grid     :     455.9999894791
  | Charge integration error                      :      -0.0000105209
  | Normalization factor for density and gradient :       1.0000000231

  Evaluating partitioned Hartree potential by multipole expansion.
  | Original multipole sum: apparent total charge =   0.108700E-12
  | Sum of charges compensated after spline to logarithmic grids =   0.841668E-07
  | Analytical far-field extrapolation by fixed multipoles:
  | Hartree multipole sum: apparent total charge =   0.108740E-12
  Summing up the Hartree potential.
  Time summed over all CPUs for potential: real work       39.916 s, elapsed       40.876 s
  | RMS charge density error from multipole expansion :   0.758777E-02
  | Average real-space part of the electrostatic potential :     -0.01042875 eV

  Integrating Hamiltonian matrix: batch-based integration.
  Time summed over all CPUs for integration: real work       62.568 s, elapsed       63.842 s

  Updating Kohn-Sham eigenvalues and eigenvectors using ELSI and the (modified) LAPACK eigensolver.
  Starting LAPACK eigensolver
  Finished Cholesky decomposition
  | Time :     0.011 s
  Finished transformation to standard eigenproblem
  | Time :     0.020 s
  Finished solving standard eigenproblem
  | Time :     0.070 s
  Finished back-transformation of eigenvectors
  | Time :     0.009 s

  Obtaining occupation numbers and chemical potential using ELSI.
  | Chemical potential (Fermi level):    -4.85686974 eV
  What follows are estimated values for band gap, HOMO, LUMO, etc.
  | They are estimated on a discrete k-point grid and not necessarily exact.
  | For converged numbers, create a DOS and/or band structure plot on a denser k-grid.

  Highest occupied state (VBM) at     -4.85747780 eV (relative to internal zero)
  | Occupation number:      1.01372164
  | K-point:      76 at    0.285714    0.571429    0.833333 (in units of recip. lattice)

  Lowest unoccupied state (CBM) at    -4.84952311 eV (relative to internal zero)
  | Occupation number:      0.83538974
  | K-point:     101 at    0.428571    0.428571    0.166667 (in units of recip. lattice)

  ESTIMATED overall HOMO-LUMO gap:      0.00795469 eV between HOMO at k-point 76 and LUMO at k-point 101
  | This appears to be an indirect band gap.
  | Smallest direct gap :      0.19955310 eV for k_point 76 at    0.428571    0.428571    0.166667 (in units of recip. lattice)
  However, this system has fractional occupation numbers. Since we use a finite k-point grid,
  this material is metallic within the approximate finite broadening function (occupation_type)
  applied to determine the occupation numbers.

  Total energy components:
  | Sum of eigenvalues            :      -23864.35594962 Ha     -649382.16559005 eV
  | XC energy correction          :       -1284.32454008 Ha      -34948.24888286 eV
  | XC potential correction       :        1672.89852431 Ha       45521.88497458 eV
  | Free-atom electrostatic energy:      -16511.30533463 Ha     -449295.47805762 eV
  | Hartree energy correction     :           7.18250169 Ha         195.44581512 eV
  | vdW energy correction         :           0.00000000 Ha           0.00000000 eV
  | Entropy correction            :          -0.00004435 Ha          -0.00120691 eV
  | ---------------------------
  | Total energy                  :      -39979.90479833 Ha    -1087908.56174083 eV
  | Total energy, T -> 0          :      -39979.90484269 Ha    -1087908.56294774 eV  <-- do not rely on this value for anything but (periodic) metals
  | Electronic free energy        :      -39979.90488704 Ha    -1087908.56415465 eV

  Derived energy quantities:
  | Kinetic energy                :       41145.64246068 Ha     1119629.89749722 eV
  | Electrostatic energy          :      -79841.22271894 Ha    -2172590.21035518 eV
  | Energy correction for multipole
  | error in Hartree potential    :          -0.00519641 Ha          -0.14140159 eV
  | Sum of eigenvalues per atom                           :      -54115.18046584 eV
  | Total energy (T->0) per atom                          :      -90659.04691231 eV  <-- do not rely on this value for anything but (periodic) metals
  | Electronic free energy per atom                       :      -90659.04701289 eV

  Self-consistency convergence accuracy:
  | Change of charge density      :  0.5536E-04
  | Change of sum of eigenvalues  :  0.5804E-01 eV
  | Change of total energy        : -0.3700E-06 eV

  End self-consistency iteration #    16       :  max(cpu_time)    wall_clock(cpu1)
  | Time for this iteration                    :       11.475 s          11.475 s
  | Charge density update                      :        5.253 s           5.253 s
  | Density mixing & preconditioning           :        0.808 s           0.808 s
  | Hartree multipole update                   :        0.004 s           0.004 s
  | Hartree multipole summation                :        1.723 s           1.723 s
  | Integration                                :        2.687 s           2.687 s
  | Solution of K.-S. eqns.                    :        0.997 s           0.998 s
  | Total energy evaluation                    :        0.001 s           0.002 s

  Partial memory accounting:
  | Current value for overall tracked memory usage:
  |   Minimum:       33.922 MB (on task  0)
  |   Maximum:       36.021 MB (on task  1)
  |   Average:       34.272 MB
  | Peak value for overall tracked memory usage:
  |   Minimum:       47.355 MB (on task  6 after allocating wave)
  |   Maximum:       49.994 MB (on task  2 after allocating wave)
  |   Average:       48.053 MB
  | Largest tracked array allocation so far:
  |   Minimum:       12.597 MB (KS_eigenvector_complex on task  0)
  |   Maximum:       14.696 MB (KS_eigenvector_complex on task  1)
  |   Average:       12.947 MB
  Note:  These values currently only include a subset of arrays which are explicitly tracked.
  The "true" memory usage will be greater.
------------------------------------------------------------

------------------------------------------------------------
          Begin self-consistency iteration #   17

  Date     :  20200420, Time     :  113812.028
------------------------------------------------------------
  Evaluating new KS density using the density matrix
  Evaluating density matrix
