------------------------------------------------------------
          Invoking FHI-aims ...

          When using FHI-aims, please cite the following reference:

          Volker Blum, Ralf Gehrke, Felix Hanke, Paula Havu,
          Ville Havu, Xinguo Ren, Karsten Reuter, and Matthias Scheffler,
          'Ab Initio Molecular Simulations with Numeric Atom-Centered Orbitals',
          Computer Physics Communications 180, 2175-2196 (2009)

          For any questions about FHI-aims, please visit the aimsclub website
          with its forums and wiki. Contributions to both the forums and the
          wiki are warmly encouraged - they are for you, and everyone is welcome there.

------------------------------------------------------------



  Date     :  20200420, Time     :  204038.788
  Time zero on CPU 1             :   0.103582000000000E+00  s.
  Internal wall clock time zero  :           356647238.788  s.

  FHI-aims created a unique identifier for this run for later identification
  aims_uuid : 0C4EF849-BA2C-4E73-ADA9-E753A0668176

  Build configuration of the current instance of FHI-aims
  -------------------------------------------------------
  FHI-aims version      : 200112
  Commit number         : 23daeca3f
  CMake host system     : Linux-3.10.0-693.21.1.el7.x86_64
  CMake version         : 3.13.3
  Fortran compiler      : /sw/installed/impi/2018.4.274-iccifort-2019.1.144-GCC-8.2.0-2.31.1/bin64/mpiifort (Intel) version 19.0.0.20181018
  Fortran compiler flags: -O3 -ip -fp-model precise
  C compiler            : /sw/installed/impi/2018.4.274-iccifort-2019.1.144-GCC-8.2.0-2.31.1/bin64/mpiicc (Intel) version 19.0.0.20181018
  C compiler flags      : -O3 -ip -fp-model precise
  Architecture          :
  Using MPI
  Using Scalapack
  Using C files
  Using LibXC
  Using SPGlib
  Using i-PI
  Using RLSY
  Linking against: /sw/installed/imkl/2019.1.144-iimpi-2019a/mkl/lib/intel64/libmkl_intel_lp64.so
                   /sw/installed/imkl/2019.1.144-iimpi-2019a/mkl/lib/intel64/libmkl_sequential.so
                   /sw/installed/imkl/2019.1.144-iimpi-2019a/mkl/lib/intel64/libmkl_core.so
                   /sw/installed/imkl/2019.1.144-iimpi-2019a/mkl/lib/intel64/libmkl_blacs_intelmpi_lp64.so
                   /sw/installed/imkl/2019.1.144-iimpi-2019a/mkl/lib/intel64/libmkl_scalapack_lp64.so

  Using       24 parallel tasks.
  Task        0 on host taurusi6504.taurus.hrsk.tu-dresden.de reporting.
  Task        1 on host taurusi6504.taurus.hrsk.tu-dresden.de reporting.
  Task        2 on host taurusi6504.taurus.hrsk.tu-dresden.de reporting.
  Task        3 on host taurusi6504.taurus.hrsk.tu-dresden.de reporting.
  Task        4 on host taurusi6504.taurus.hrsk.tu-dresden.de reporting.
  Task        5 on host taurusi6504.taurus.hrsk.tu-dresden.de reporting.
  Task        6 on host taurusi6504.taurus.hrsk.tu-dresden.de reporting.
  Task        7 on host taurusi6504.taurus.hrsk.tu-dresden.de reporting.
  Task        8 on host taurusi6504.taurus.hrsk.tu-dresden.de reporting.
  Task        9 on host taurusi6504.taurus.hrsk.tu-dresden.de reporting.
  Task       10 on host taurusi6504.taurus.hrsk.tu-dresden.de reporting.
  Task       11 on host taurusi6504.taurus.hrsk.tu-dresden.de reporting.
  Task       12 on host taurusi6504.taurus.hrsk.tu-dresden.de reporting.
  Task       13 on host taurusi6504.taurus.hrsk.tu-dresden.de reporting.
  Task       14 on host taurusi6504.taurus.hrsk.tu-dresden.de reporting.
  Task       15 on host taurusi6504.taurus.hrsk.tu-dresden.de reporting.
  Task       16 on host taurusi6504.taurus.hrsk.tu-dresden.de reporting.
  Task       17 on host taurusi6504.taurus.hrsk.tu-dresden.de reporting.
  Task       18 on host taurusi6504.taurus.hrsk.tu-dresden.de reporting.
  Task       19 on host taurusi6504.taurus.hrsk.tu-dresden.de reporting.
  Task       20 on host taurusi6504.taurus.hrsk.tu-dresden.de reporting.
  Task       21 on host taurusi6504.taurus.hrsk.tu-dresden.de reporting.
  Task       22 on host taurusi6504.taurus.hrsk.tu-dresden.de reporting.
  Task       23 on host taurusi6504.taurus.hrsk.tu-dresden.de reporting.

  Performing system and environment tests:
  | Environment variable OMP_NUM_THREADS correctly set to 1.
  | Maximum stacksize for task 0: unlimited
  | Maximum stacksize for task 1: unlimited
  | Maximum stacksize for task 2: unlimited
  | Maximum stacksize for task 3: unlimited
  | Maximum stacksize for task 4: unlimited
  | Maximum stacksize for task 5: unlimited
  | Maximum stacksize for task 6: unlimited
  | Maximum stacksize for task 7: unlimited
  | Maximum stacksize for task 8: unlimited
  | Maximum stacksize for task 9: unlimited
  | Maximum stacksize for task 10: unlimited
  | Maximum stacksize for task 11: unlimited
  | Maximum stacksize for task 12: unlimited
  | Maximum stacksize for task 13: unlimited
  | Maximum stacksize for task 14: unlimited
  | Maximum stacksize for task 15: unlimited
  | Maximum stacksize for task 16: unlimited
  | Maximum stacksize for task 17: unlimited
  | Maximum stacksize for task 18: unlimited
  | Maximum stacksize for task 19: unlimited
  | Maximum stacksize for task 20: unlimited
  | Maximum stacksize for task 21: unlimited
  | Maximum stacksize for task 22: unlimited
  | Maximum stacksize for task 23: unlimited
  | Current stacksize for task 0: unlimited
  | Current stacksize for task 1: unlimited
  | Current stacksize for task 2: unlimited
  | Current stacksize for task 3: unlimited
  | Current stacksize for task 4: unlimited
  | Current stacksize for task 5: unlimited
  | Current stacksize for task 6: unlimited
  | Current stacksize for task 7: unlimited
  | Current stacksize for task 8: unlimited
  | Current stacksize for task 9: unlimited
  | Current stacksize for task 10: unlimited
  | Current stacksize for task 11: unlimited
  | Current stacksize for task 12: unlimited
  | Current stacksize for task 13: unlimited
  | Current stacksize for task 14: unlimited
  | Current stacksize for task 15: unlimited
  | Current stacksize for task 16: unlimited
  | Current stacksize for task 17: unlimited
  | Current stacksize for task 18: unlimited
  | Current stacksize for task 19: unlimited
  | Current stacksize for task 20: unlimited
  | Current stacksize for task 21: unlimited
  | Current stacksize for task 22: unlimited
  | Current stacksize for task 23: unlimited
  | Checking for scalapack...
  | Testing pdtran()...
  | All pdtran() tests passed.

  Obtaining array dimensions for all initial allocations:
  
  -----------------------------------------------------------------------
  Parsing control.in (first pass over file, find array dimensions only).
  The contents of control.in will be repeated verbatim below
  unless switched off by setting 'verbatim_writeout .false.' .
  in the first line of control.in .
  -----------------------------------------------------------------------
  
  #===============================================================================
  # FHI-aims file: ./control.in
  # Created using the Atomic Simulation Environment (ASE)
  # Thu Apr  2 11:27:09 2020
  #===============================================================================
  xc                                 pbe
  # include_spin_orbit
  # vdw_correction_hirshfeld
  many_body_dispersion
  spin                               none
  k_grid 	 	 7 7 6
  relativistic                       atomic_zora scalar
  energy_tolerance 1e-2
  harmonic_length_scale  0.015
  ### SCF settings
  adjust_scf 	 always 	 3
  # frozen_core_scf 	 .true.
  # charge_mix_param  0.05
  # occupation_type 	 gaussian 	 0.01
  # sc_accuracy_eev   1E-3 	 	 # sum of eigenvalues convergence
  # sc_accuracy_etot  1E-6 	 	 # total energy convergence
  # sc_accuracy_rho   1E-3 	 	 # electron density convergence
  # elsi_restart 	 read_and_write 	 1000
  ### geometry optimisation section
  relax_geometry 	 bfgs 	 1E-2
  relax_unit_cell 	 full
  #===============================================================================
  
  ################################################################################
  #
  #  FHI-aims code project
  # Volker Blum, Fritz Haber Institute Berlin, 2009
  #
  #  Suggested "tight" defaults for Pd atom (to be pasted into control.in file)
  #
  ################################################################################
    species        Pd
  #     global species definitions
      nucleus             46
      mass                106.42
  #
      l_hartree           6
  #
      cut_pot             4.0  2.0  1.0
      basis_dep_cutoff    1e-4
  #
      radial_base         62 7.0
      radial_multiplier   2
      angular_grids specified
        division   0.3627   50
        division   0.7349  110
        division   1.0624  194
        division   1.2496  302
        division   1.6740  434
  #      division   2.0126  590
  #      division   2.0830  770
  #      division   2.7936 1202
  #       outer_grid  974
        outer_grid  434
  ################################################################################
  #
  #  Definition of "minimal" basis
  #
  ################################################################################
  #     valence basis states
      valence      5  s   1.
      valence      4  p   6.
      valence      4  d   9.
  #     ion occupancy
      ion_occ     5  s   0.
      ion_occ     4  p   6.
      ion_occ     4  d   8.
  ################################################################################
  #
  #  Suggested additional basis functions. For production calculations,
  #  uncomment them one after another (the most important basis functions are
  #  listed first).
  #
  #  Constructed for dimers: 2.0 A, 2.275 A, 2.75 A, 3.75 A
  #
  ################################################################################
  #  "First tier" - max. impr. -120.76  meV, min. impr. -5.71 meV
       ionic 5 p auto
       hydro 4 f 8
       hydro 5 g 10
       hydro 3 s 2.6
       hydro 3 d 2.5
  #  "Second tier" - max. impr. -5.00  meV, min. impr. -0.62 meV
  #     hydro 5 f 17.2
  #     hydro 6 h 14
  #     hydro 4 d 4
  #     hydro 5 f 7.6
  #     hydro 3 p 3.3
  #     hydro 4 s 9.4
  #  "Third tier" - max. impr. -0.54  meV, min. impr. -0.14 meV
  #     hydro 4 f 20
  #     hydro 5 g 12.8
  #     hydro 5 d 9.8
  #     hydro 6 h 15.2
  #     hydro 5 s 10
  #     hydro 6 p 9.8
  #  "Fourth tier" - max. impr. -0.15  meV, min. impr. -0.05 meV
  #     hydro 5 f 9.2
  #     hydro 2 s 5.6
  #     hydro 5 f 43.2
  #     hydro 5 d 13.2
  #     hydro 5 g 14
  #     hydro 4 p 4.7
  ################################################################################
  #
  #  FHI-aims code project
  # Volker Blum, Fritz Haber Institute Berlin, 2009
  #
  #  Suggested "tight" defaults for Se atom (to be pasted into control.in file)
  #
  ################################################################################
    species        Se
  #     global species definitions
      nucleus             34
      mass                78.96
  #
      l_hartree           6
  #
      cut_pot             4.0          2.0  1.0
      basis_dep_cutoff    1e-4
  #
      radial_base         55 7.0
      radial_multiplier   2
      angular_grids       specified
        division   0.0830  110
        division   0.1357  194
        division   0.7377  302
        division   0.8610  434
  #      division   0.9640  590
  #      division   1.0773  770
  #      division   2.5539  974
  #      outer_grid  974
        outer_grid  434
  ################################################################################
  #
  #  Definition of "minimal" basis
  #
  ################################################################################
  #     valence basis states
      valence      4  s   2.
      valence      4  p   4.
      valence      3  d  10.
  #     ion occupancy
      ion_occ      4  s   1.
      ion_occ      4  p   3.
      ion_occ      3  d  10.
  ################################################################################
  #
  #  Suggested additional basis functions. For production calculations,
  #  uncomment them one after another (the most important basis functions are
  #  listed first).
  #
  #  Constructed for dimers: 1.85 A, 2.15 A, 2.50 A, 3.00 A, 4.00 A
  #
  ################################################################################
  #  "First tier" - improvements: -336.21 meV to -36.85 meV
       hydro 3 d 4.3
       hydro 2 p 1.6
       hydro 4 f 7.2
       ionic 4 s auto
  #  "Second tier" - improvements: -14.39 meV to -1.49 meV
  #     hydro 5 g 10.4
  #     hydro 4 p 4.5
  #     hydro 4 d 6.2
  #     hydro 4 f 11.2
  #     hydro 1 s 0.65
  #     hydro 6 h 15.2
  #  "Third tier" - improvements: -0.46 meV and below
  #     hydro 5 g 14.4
  #     ionic 4 d auto
  #     hydro 4 f 22.4
  #     hydro 5 f 7.4
  #     hydro 5 p 8
  #     hydro 5 s 9.4
  #  "Fourth tier" - improvements: -0.12 meV and below
  #     hydro 5 d 11.6
  #     hydro 6 h 18
  #     hydro 4 p 4
  #     hydro 5 f 16
  #     hydro 4 s 3.9
  #
  #
  
  -----------------------------------------------------------------------
  Completed first pass over input file control.in .
  -----------------------------------------------------------------------
  
  
  -----------------------------------------------------------------------
  Parsing geometry.in (first pass over file, find array dimensions only).
  The contents of geometry.in will be repeated verbatim below
  unless switched off by setting 'verbatim_writeout .false.' .
  in the first line of geometry.in .
  -----------------------------------------------------------------------
  
  #
  # This is the geometry file that corresponds to the current relaxation step.
  # If you do not want this file to be written, set the "write_restart_geometry" flag to .false.
  #  aims_uuid : 0C15966A-BB77-4AF2-AADB-6713D2BA0142
  #
  lattice_vector      5.84797065      0.00000000      0.00000000
  lattice_vector      0.00000000      5.95607946      0.00000000
  lattice_vector      0.00000000      0.00000000      7.46279850
  atom_frac       0.50183973      0.00127086      0.00127158 Pd
  atom_frac       0.00121281      0.00122978      0.50174202 Pd
  atom_frac       0.00121914      0.50181696      0.00118047 Pd
  atom_frac       0.50179866      0.50178017      0.50183558 Pd
  atom_frac       0.61357514      0.11926631      0.40377248 Se
  atom_frac       0.89055585      0.88426433      0.90445758 Se
  atom_frac       0.11305753      0.38381356      0.59984530 Se
  atom_frac       0.39016299      0.61988501      0.09925214 Se
  atom_frac       0.39007499      0.88433189      0.59984315 Se
  atom_frac       0.11300493      0.11926816      0.09923473 Se
  atom_frac       0.89060179      0.61990452      0.40378172 Se
  atom_frac       0.61353101      0.38380303      0.90441784 Se
  #
  # What follows is the current estimated Hessian matrix constructed by the BFGS algorithm.
  # This is NOT the true Hessian matrix of the system.
  # If you do not want this information here, switch it off using the "hessian_to_restart_geometry" keyword.
  #
  trust_radius             0.0122154887
  hessian_block                1       1           6.316380          -0.641402          -2.381357          -0.641402           7.39581
  hessian_block                1       2          -0.951559           2.026126           0.430268          -0.653198           2.10792
  hessian_block                1       3          -1.420043           2.973900           0.622285           0.213846          -0.78130
  hessian_block                1       4           0.342213           0.586630           0.044948           0.092714          -0.19032
  hessian_block                1       5           0.462844          -1.366735          -0.404722          -1.272804           1.47970
  hessian_block                1       6          -0.599972          -1.643102           0.392226           1.564963          -2.23938
  hessian_block                1       7          -0.816300           0.890980           0.332950           0.426747          -0.16712
  hessian_block                1       8           0.676604          -2.312608          -0.151539          -0.070214          -2.52527
  hessian_block                1       9          -0.001996          -0.266539           0.088176           0.468440          -1.60106
  hessian_block                1      10          -3.613231           2.920050           1.398434          -1.389461           2.31262
  hessian_block                1      11           0.969515          -1.878011          -0.500463           0.933752          -1.61405
  hessian_block                1      12           0.201454          -1.289289           0.128793           0.326619          -2.53051
  hessian_block                2       2           8.231412           2.696776           4.203763           2.696776           9.14038
  hessian_block                2       3           4.147492           4.125881           3.152759          -1.206803          -1.11437
  hessian_block                2       4           0.628904           0.916180           0.384152          -0.402369           0.11535
  hessian_block                2       5          -3.354629          -1.162657          -2.020658           2.377029           1.74812
  hessian_block                2       6          -3.013686          -3.017672          -2.460878          -2.790125          -3.36607
  hessian_block                2       7           0.988287           0.623039           0.768215          -1.009583          -2.30004
  hessian_block                2       8          -2.411442          -2.671580          -1.922882          -0.639059          -0.87500
  hessian_block                2       9          -2.362488          -0.028968          -1.202496          -1.213554          -2.68182
  hessian_block                2      10           3.467308           3.193725           2.870011           3.640676           3.99527
  hessian_block                2      11          -2.575384          -3.049344          -2.140033          -2.436581          -4.36406
  hessian_block                2      12          -1.228304          -0.972185          -0.840569          -1.042535          -0.75864
  hessian_block                3       3          11.388993          -1.600174           5.304475          -1.600174           6.48640
  hessian_block                3       4           0.894439          -0.373681           0.296981          -0.396918           0.28935
  hessian_block                3       5          -2.414669           0.558849          -1.433515           2.833861          -0.39955
  hessian_block                3       6          -4.615787           1.542757          -2.719558          -3.777402          -0.92733
  hessian_block                3       7           1.720308          -0.339707           1.183931          -0.733624           0.17045
  hessian_block                3       8          -5.328613           0.391280          -2.735963          -1.648954          -0.19377
  hessian_block                3       9          -0.802787           0.443311          -0.159457          -2.739100           0.54067
  hessian_block                3      10           5.016522          -0.593134           2.808592           6.093291          -3.11170
  hessian_block                3      11          -3.558072           0.923522          -2.044422          -3.072386           0.51211
  hessian_block                3      12          -3.461873           0.039934          -1.647546          -2.058378           0.17606
  hessian_block                4       4           5.958890          -0.000091          -1.975751          -0.000091           6.37438
  hessian_block                4       5          -0.715557           0.711479           0.148616           0.537614          -1.80830
  hessian_block                4       6          -0.557809           0.126649          -0.296992          -0.654537          -0.35123
  hessian_block                4       7          -1.700998          -0.592920           0.883132          -0.287485          -0.26646
  hessian_block                4       8          -0.544196           0.012539          -0.321928          -0.033728          -0.26300
  hessian_block                4       9          -0.319108           0.630273           0.095098          -0.209979          -2.26536
  hessian_block                4      10           0.150354          -0.182234           0.265390           0.279774           0.36439
  hessian_block                4      11          -2.286239          -0.341410           0.591203          -0.954306          -0.50806
  hessian_block                4      12          -0.284985           0.342289          -0.067406           0.193610           0.15628
  hessian_block                5       5           6.012968          -1.604418          -1.256296          -1.604418           7.60803
  hessian_block                5       6           1.740734          -2.265959          -0.157763           1.508884          -2.43929
  hessian_block                5       7          -1.023602           1.795258          -0.069070          -0.491996          -0.24189
  hessian_block                5       8           1.373568          -1.967361           0.521953           0.779140          -0.88703
  hessian_block                5       9          -1.114611          -0.660010           1.789936           0.644060          -3.26415
  hessian_block                5      10          -1.843781           3.051525           0.192007          -1.742841           3.48530
  hessian_block                5      11           1.769756          -2.454937           0.202259           1.879975          -2.37609
  hessian_block                5      12           0.672890          -0.369800          -0.479371           0.286257          -1.25783
  hessian_block                6       6           8.068656           3.226742           7.672906           3.226742           8.65765
  hessian_block                6       7          -1.027557          -1.299147          -2.559912           0.928203           0.89915
  hessian_block                6       8           2.640556           3.002226           5.150233           1.093621           0.99835
  hessian_block                6       9           0.523886           0.636249           0.859794           2.043517           2.60251
  hessian_block                6      10          -5.163572          -4.832695          -9.908669          -5.333146          -6.03149
  hessian_block                6      11           2.339975           2.602421           4.649563           2.165532           2.64489
  hessian_block                6      12           1.230486           0.812421           1.804332           1.132858           1.19925
  hessian_block                7       7           5.719994           0.285537           0.596804           0.285537           5.97520
  hessian_block                7       8          -1.272233           0.467019           0.531095          -0.380908          -0.05724
  hessian_block                7       9           0.214770           0.613490          -0.107883          -1.389016          -0.10794
  hessian_block                7      10           1.574098          -1.315005          -1.223873           1.971786          -1.47210
  hessian_block                7      11          -2.640792           0.886901          -0.870368          -0.708396          -1.39754
  hessian_block                7      12          -0.170061           0.229795           0.674716          -0.856505           0.61257
  hessian_block                8       8           6.602510           0.741665          -2.462411           0.741665           5.77312
  hessian_block                8       9           0.492076          -0.312478          -0.449361           2.081981           0.78172
  hessian_block                8      10          -3.060250          -1.273544           2.258570          -3.786437          -1.35104
  hessian_block                8      11           2.367252           0.586618          -1.535702           2.077471           1.28868
  hessian_block                8      12           0.030078           1.157842           1.268852           1.963806          -1.04247
  hessian_block                9       9           5.036364          -0.214075          -0.755393          -0.214075           7.60045
  hessian_block                9      10          -0.527422          -2.091236          -0.564127          -0.794375          -2.89870
  hessian_block                9      11           0.111425           2.389478           0.263830          -0.325716           2.34820
  hessian_block                9      12           0.315803           0.229484           0.747881           0.278837           0.59251
  hessian_block               10      10           9.833648           5.583294           6.252674           5.583294          11.89445
  hessian_block               10      11          -2.830100          -3.361880          -2.695934          -2.640271          -3.47130
  hessian_block               10      12          -1.437666          -1.160684          -1.118886          -1.820476          -2.06867
  hessian_block               11      11           7.200754           2.550713           0.813684           2.550713           7.92759
  hessian_block               11      12           0.697818           0.530213          -0.488194           1.145929           0.65665
  hessian_block               12      12           5.000274           0.449980           0.017400           0.449980           5.91183
  hessian_block_lv             1       1          26.388055          -2.070214           5.689696          -2.070214          24.35190
  hessian_block_lv_atom        1       1          -0.242942           0.379161          -0.396637          -0.037336          -1.15080
  hessian_block_lv_atom        1       2          -0.030016          -1.411023           0.634910           0.563620          -1.11064
  hessian_block_lv_atom        1       3           0.073661          -1.986743           0.999414           0.180799           0.71295
  hessian_block_lv_atom        1       4          -0.130667          -0.200476           0.075379           0.736373           0.68013
  hessian_block_lv_atom        1       5           0.364861           1.380674           0.042617           0.823305          -0.35854
  hessian_block_lv_atom        1       6          -0.609791           0.619800          -1.173874          -1.176258           0.70086
  hessian_block_lv_atom        1       7          -0.327983          -1.376466           0.424523          -1.240155          -1.28168
  hessian_block_lv_atom        1       8          -0.488178           0.592331          -1.152729          -0.056038           0.58223
  hessian_block_lv_atom        1       9          -0.072611          -0.045692          -0.414388          -1.012804           0.28452
  hessian_block_lv_atom        1      10           0.819753          -0.638797           1.494941           1.546771          -0.79444
  hessian_block_lv_atom        1      11           0.197146           1.653956          -0.766173           0.122108           1.78010
  hessian_block_lv_atom        1      12           0.446766           1.033274           0.232017          -0.450385          -0.04470
  symmetry_n_params 39 3 36
  symmetry_params a1 b2 c3 x0 x1 x2 x3 x4 x5 x6 x7 x8 x9 x10 x11 x12 x13 x14 x15 x16 x17 x18 x19 x20 x21 x22 x23 x24 x25 x26 x27 x28 x
  symmetry_lv a1 , 0 , 0
  symmetry_lv 0 , b2 , 0
  symmetry_lv 0 , 0 , c3
  symmetry_frac x0 , x1 , x2
  symmetry_frac x3 , x4 , x5
  symmetry_frac x6 , x7 , x8
  symmetry_frac x9 , x10 , x11
  symmetry_frac x12 , x13 , x14
  symmetry_frac x15 , x16 , x17
  symmetry_frac x18 , x19 , x20
  symmetry_frac x21 , x22 , x23
  symmetry_frac x24 , x25 , x26
  symmetry_frac x27 , x28 , x29
  symmetry_frac x30 , x31 , x32
  symmetry_frac x33 , x34 , x35
  
  -----------------------------------------------------------------------
  Completed first pass over input file geometry.in .
  -----------------------------------------------------------------------
  

  Basic array size parameters:
  | Number of species                 :        2
  | Number of atoms                   :       12
  | Number of lattice vectors         :        3
  | Max. basis fn. angular momentum   :        4
  | Max. atomic/ionic basis occupied n:        5
  | Max. number of basis fn. types    :        3
  | Max. radial fns per species/type  :       10
  | Max. logarithmic grid size        :     1444
  | Max. radial integration grid size :      125
  | Max. angular integration grid size:      434
  | Max. angular grid division number :        8
  | Radial grid for Hartree potential :     1444
  | Number of spin channels           :        1

------------------------------------------------------------
          Reading file control.in.
------------------------------------------------------------
  XC: Using PBE gradient-corrected functionals.
  Using libMBD for calculating MBD and TS energies
  Spin treatment: No spin polarisation.
  Found k-point grid:         7         7         6
  Scalar relativistic treatment of kinetic energy: on-site free-atom approximation to ZORA.
  Max energy increase before discarding BFGS move:   0.100000E-01 eV
  Assuming qualitatively harmonic for steps shorter than   0.150000E-01 A.
  S.C.F. convergence parameters will be adjusted in iteration number     3 of each new s.c.f. cycle.
  Geometry relaxation: Modified BFGS - TRM (trust radius method) for lattice optimization.
  Convergence accuracy for geometry relaxation: Maximum force <   0.100000E-01 eV/A.
 
  Reading configuration options for species Pd                  .
  | Found nuclear charge :  46.0000
  | Found atomic mass :    106.420000000000      amu
  | Found l_max for Hartree potential  :   6
  | Found cutoff potl. onset [A], width [A], scale factor :    4.00000    2.00000    1.00000
  | Threshold for basis-dependent cutoff potential is   0.100000E-03
  | Found data for basic radial integration grid :    62 points, outermost radius =    7.000 A
  | Found multiplier for basic radial grid :   2
  | Found angular grid specification: user-specified.
  | Specified grid contains     6 separate shells.
  | Check grid settings after all constraints further below.
  | Found free-atom valence shell :  5 s   1.000
  | Found free-atom valence shell :  4 p   6.000
  | Found free-atom valence shell :  4 d   9.000
  | Found free-ion valence shell :  5 s   0.000
  | Found free-ion valence shell :  4 p   6.000
  | Found free-ion valence shell :  4 d   8.000
  | Found ionic basis function :  5 p , default cutoff radius.
  | Found hydrogenic basis function :  4 f   8.000
  | Found hydrogenic basis function :  5 g  10.000
  | Found hydrogenic basis function :  3 s   2.600
  | Found hydrogenic basis function :  3 d   2.500
  Species Pd                  : Missing cutoff potential type.
  Defaulting to exp(1/x)/(1-x)^2 type cutoff potential.
  Species Pd: No 'logarithmic' tag. Using default grid for free atom:
  | Default logarithmic grid data [bohr] : 0.1000E-03 0.1000E+03 0.1012E+01
  | Will include ionic basis functions of  2.0-fold positive Pd                   ion.
  Species Pd: On-site basis accuracy parameter (for Gram-Schmidt orthonormalisation) not specified.
  Using default value basis_acc =  0.1000000E-03.
  Species Pd                  : Using default innermost maximum threshold i_radial=  2 for radial functions.
  Species Pd                  : Default cutoff onset for free atom density etc. : 0.40000000E+01 AA.
  Species Pd                  : Basic radial grid will be enhanced according to radial_multiplier =   2, to contain   125 grid points.
 
  Reading configuration options for species Se                  .
  | Found nuclear charge :  34.0000
  | Found atomic mass :    78.9600000000000      amu
  | Found l_max for Hartree potential  :   6
  | Found cutoff potl. onset [A], width [A], scale factor :    4.00000    2.00000    1.00000
  | Threshold for basis-dependent cutoff potential is   0.100000E-03
  | Found data for basic radial integration grid :    55 points, outermost radius =    7.000 A
  | Found multiplier for basic radial grid :   2
  | Found angular grid specification: user-specified.
  | Specified grid contains     5 separate shells.
  | Check grid settings after all constraints further below.
  | Found free-atom valence shell :  4 s   2.000
  | Found free-atom valence shell :  4 p   4.000
  | Found free-atom valence shell :  3 d  10.000
  | Found free-ion valence shell :  4 s   1.000
  | Found free-ion valence shell :  4 p   3.000
  | Found free-ion valence shell :  3 d  10.000
  | Found hydrogenic basis function :  3 d   4.300
  | Found hydrogenic basis function :  2 p   1.600
  | Found hydrogenic basis function :  4 f   7.200
  | Found ionic basis function :  4 s , default cutoff radius.
  Species Se                  : Missing cutoff potential type.
  Defaulting to exp(1/x)/(1-x)^2 type cutoff potential.
  Species Se: No 'logarithmic' tag. Using default grid for free atom:
  | Default logarithmic grid data [bohr] : 0.1000E-03 0.1000E+03 0.1012E+01
  | Will include ionic basis functions of  2.0-fold positive Se                   ion.
  Species Se: On-site basis accuracy parameter (for Gram-Schmidt orthonormalisation) not specified.
  Using default value basis_acc =  0.1000000E-03.
  Species Se                  : Using default innermost maximum threshold i_radial=  2 for radial functions.
  Species Se                  : Default cutoff onset for free atom density etc. : 0.40000000E+01 AA.
  Species Se                  : Basic radial grid will be enhanced according to radial_multiplier =   2, to contain   111 grid points.
 
  Finished reading input file 'control.in'. Consistency checks are next.
 
  MPI_IN_PLACE appears to work with this MPI implementation.
  | Keeping use_mpi_in_place .true. (see manual).
  Target number of points in a grid batch is not set. Defaulting to  100
  Method for grid partitioning is not set. Defaulting to parallel hash+maxmin partitioning.
  Batch size limit is not set. Defaulting to    200
  By default, will store active basis functions for each batch.
  If in need of memory, prune_basis_once .false. can be used to disable this option.
  communication_type for Hartree potential was not specified.
  Defaulting to calc_hartree .
  Defaulting to Pulay charge density mixer.
  Pulay mixer: Number of relevant iterations not set.
  Defaulting to    8 iterations.
  Pulay mixer: Number of initial linear mixing iterations not set.
  Defaulting to    0 iterations.
  Work space size for distributed Hartree potential not set.
  Defaulting to   0.200000E+03 MB.
  Mixing parameter for charge density mixing has not been set.
  Using default: charge_mix_param =     0.0500.
  The mixing parameter will be adjusted in iteration number     3 of each s.c.f. cycle (i.e., each geometry step).
  Algorithm-dependent basis array size parameters:
  | n_max_pulay                         :        8
  Maximum number of self-consistency iterations not provided.
  Presetting  1000 iterations.
  Presetting      1001 iterations before the initial mixing cycle
  is restarted anyway using the sc_init_iter criterion / keyword.
  Presetting a factor      1.000 between actual scf density residual
  and density convergence criterion sc_accuracy_rho below which sc_init_iter
  takes no effect.
 * No s.c.f. convergence criteria (sc_accuracy_*) were provided in control.in.
 * The run will proceed with a reasonable default guess, but please check whether.
 * the s.c.f. cycles seem to take too much or too little time.
  No maximum number of relaxation steps, defaulting to     1000
  Using explicit Hessian from geometry.in.
  Maximum energy tolerance by which TRM/BFGS trajectory may increase over multiple steps:   0.300000E-02
  No trust radius initializer. Defaulting to   0.200000E+00 A.
  Unit cell relaxation: Unit cell will be relaxed fully.
  Unit cell relaxation: Analytical stress will be used.
  Analytical stress will be computed.
  Analytical stress calculation: Only the upper triangle is calculated.
                                 Final output is symmetrized.
  Analytical stress calculation: scf convergence accuracy of stress not set.
                                 Analytical stress self-consistency will not be checked explicitly.
                                 Be sure to set other criteria like sc_accuracy_rho tight enough.
 * Notice: The s.c.f. convergence criterion sc_accuracy_rho was not provided.
 * We used to stop in this case, and ask the user to provide reasonable
 * scf convergence criteria. However, this led some users to employ criteria
 * that led to extremely long run times, e.g., for simple relaxation.
 * We now preset a default value for sc_accuracy_rho if it is not set.
 * You may still wish to check if this setting is too tight or too loose for your needs.
 * Based on n_atoms, FHI-aims chose sc_accuracy_rho =  0.141421E-05 .
  Force calculation: scf convergence accuracy of forces not set.
  Defaulting to 'sc_accuracy_forces not_checked'.
  Handling of forces: Unphysical translation and rotation will be removed from forces.
  No accuracy limit for integral partition fn. given. Defaulting to  0.1000E-14.
  No threshold value for u(r) in integrations given. Defaulting to  0.1000E-05.
  No occupation type (smearing scheme) given. Defaulting to Gaussian broadening, width =  0.1000E-01 eV.
  The width will be adjusted in iteration number     3 of each s.c.f. cycle (i.e., each geometry step).
  S.C.F. convergence parameters will be adjusted in iteration number     3 of the first full s.c.f. cycle only.
  No accuracy for occupation numbers given. Defaulting to  0.1000E-12.
  No threshold value for occupation numbers given. Defaulting to  0.0000E+00.
  No accuracy for fermi level given. Defaulting to  0.1000E-19.
  Maximum # of iterations to find E_F not set. Defaulting to  200.
  Preferred method for the eigenvalue solver ('KS_method') not specified in 'control.in'.
  Defaulting to serial version, LAPACK (via ELSI), since more k-points than CPUs available.
  Will not use alltoall communication since running on < 1024 CPUs.
  Threshold for basis singularities not set.
  Default threshold for basis singularities:  0.1000E-04
  partition_type (choice of integration weights) for integrals was not specified.
  | Using a version of the partition function of Stratmann and coworkers ('stratmann_sparse').
  | At each grid point, the set of atoms used to build the partition table is smoothly restricted to
  | only those atoms whose free-atom density would be non-zero at that grid point.
  Partitioning for Hartree potential was not defined. Using partition_type for integrals.
  | Adjusted default value of keyword multip_moments_threshold to:       0.10000000E-11
  | This value may affect high angular momentum components of the Hartree potential in periodic systems.
  Angular momentum expansion for Kerker preconditioner not set explicitly.
  | Using default value of   0
  No explicit requirement for turning off preconditioner.
  | By default, it will be turned off when the charge convergence reaches
  | sc_accuracy_rho  =   0.141421E-05
  No special mixing parameter while Kerker preconditioner is on.
  Using default: charge_mix_param =     0.0500.
  No q(lm)/r^(l+1) cutoff set for long-range Hartree potential.
  | Using default value of  0.100000E-09 .
  | Verify using the multipole_threshold keyword.
  Defaulting to new monopole extrapolation.
  Density update method: automatic selection selected.
  Using density matrix based charge density update.
  Using density matrix based charge density update.
  Using packed matrix style: index .
  Geometry relaxation: A file "geometry.in.next_step" is written out by default after each step.
  | This file contains the geometry of the current relaxation step as well as
  | the current Hessian matrix needed to restart the relaxation algorithm.
  | If you do not want part or all of this information, use the keywords
  | "write_restart_geometry" or "hessian_to_restart_geometry" to switch the output off.
  Defaulting to use time-reversal symmetry for k-point grid.
  Charge integration errors on the 3D integration grid will be compensated
  by explicit normalization and distribution of residual charges.
  Use the "compensate_multipole_errors" flag to change this behaviour.
------------------------------------------------------------


------------------------------------------------------------
          Reading geometry description geometry.in.
------------------------------------------------------------
  Input structure read successfully.
  The structure contains       12 atoms,  and a total of        456.000 electrons.

  Input geometry:
  | Unit cell:
  |        5.84797065        0.00000000        0.00000000
  |        0.00000000        5.95607946        0.00000000
  |        0.00000000        0.00000000        7.46279850
  | Atomic structure:
  |       Atom                x [A]            y [A]            z [A]
  |    1: Species Pd            2.93474401        0.00756934        0.00948955
  |    2: Species Pd            0.00709248        0.00732467        3.74439959
  |    3: Species Pd            0.00712949        2.98886169        0.00880961
  |    4: Species Pd            2.93450384        2.98864256        3.74509781
  |    5: Species Se            3.58816941        0.71035962        3.01327266
  |    6: Species Se            5.20794447        5.26674861        6.74978467
  |    7: Species Se            0.66115712        2.28602406        4.47652461
  |    8: Species Se            2.28166171        3.69208438        0.74069872
  |    9: Species Se            2.28114709        5.26715101        4.47650856
  |   10: Species Se            0.66084951        0.71037064        0.74056879
  |   11: Species Se            5.20821313        3.69220058        3.01334161
  |   12: Species Se            3.58791134        2.28596134        6.74948810

  Lattice parameters for 3D lattice (in Angstroms) :     5.847971    5.956079    7.462798
  Angle(s) between unit vectors (in degrees)       :    90.000000   90.000000   90.000000

  | The smallest distance between any two atoms is         2.40090488 AA.
  | The first atom of this pair is atom number                      6 .
  | The second atom of this pair is atom number                    10 .
  | Wigner-Seitz cell of the first atom image           0     0     0 .
  | (The Wigner-Seitz cell of the second atom is 0 0 0  by definition.)

  Symmetry information by spglib:
  | Precision set to  0.1E-04
  | Number of Operations  : 1
  | Space group           : 1
  | International         : P1 G
  | Schoenflies           : C1^1

  Quantities derived from the lattice vectors:
  | Reciprocal lattice vector 1:  1.074421  0.000000  0.000000
  | Reciprocal lattice vector 2:  0.000000  1.054920  0.000000
  | Reciprocal lattice vector 3:  0.000000  0.000000  0.841934
  | Unit cell volume                               :   0.259937E+03  A^3

  Range separation radius for Ewald summation (hartree_convergence_parameter):      4.00248465 bohr.

  Fractional coordinates:
                         L1                L2                L3
       atom_frac         0.50183973        0.00127086        0.00127158  Pd
       atom_frac         0.00121281        0.00122978        0.50174202  Pd
       atom_frac         0.00121914        0.50181696        0.00118047  Pd
       atom_frac         0.50179866        0.50178017        0.50183558  Pd
       atom_frac         0.61357514        0.11926631        0.40377248  Se
       atom_frac         0.89055585        0.88426433        0.90445758  Se
       atom_frac         0.11305753        0.38381356        0.59984530  Se
       atom_frac         0.39016299        0.61988501        0.09925214  Se
       atom_frac         0.39007499        0.88433189        0.59984315  Se
       atom_frac         0.11300493        0.11926816        0.09923473  Se
       atom_frac         0.89060179        0.61990452        0.40378172  Se
       atom_frac         0.61353101        0.38380303        0.90441784  Se

  Number of empty states per atom not set in control.in - providing a guess from actual geometry.
  | Total number of empty states used during s.c.f. cycle:       66
  If you use a very high smearing, use empty_states (per atom!) in control.in to increase this value.

  Structure-dependent array size parameters: 
  | Maximum number of distinct radial functions  :       27
  | Maximum number of basis functions            :      468
  | Number of Kohn-Sham states (occupied + empty):      294
------------------------------------------------------------

------------------------------------------------------------
          Preparing all fixed parts of the calculation.
------------------------------------------------------------
  Determining machine precision:
    2.225073858507201E-308
  Setting up grids for atomic and cluster calculations.

  Creating wave function, potential, and density for free atoms.

  Species: Pd

  List of occupied orbitals and eigenvalues:
    n    l              occ      energy [Ha]    energy [eV]
    1    0           2.0000      -913.269104    -24851.3168
    2    0           2.0000      -130.434372     -3549.2998
    3    0           2.0000       -23.521804      -640.0609
    4    0           2.0000        -3.256918       -88.6253
    5    0           1.0000        -0.157260        -4.2793
    2    1           6.0000      -116.910756     -3181.3035
    3    1           6.0000       -19.103344      -519.8284
    4    1           6.0000        -1.998052       -54.3697
    3    2          10.0000       -12.098182      -329.2083
    4    2           9.0000        -0.243389        -6.6230


  Species: Se

  List of occupied orbitals and eigenvalues:
    n    l              occ      energy [Ha]    energy [eV]
    1    0           2.0000      -466.337810    -12689.6975
    2    0           2.0000       -59.202598     -1610.9847
    3    0           2.0000        -7.847116      -213.5309
    4    0           2.0000        -0.634372       -17.2621
    2    1           6.0000       -52.061107     -1416.6548
    3    1           6.0000        -5.620941      -152.9536
    4    1           4.0000        -0.238469        -6.4891
    3    2          10.0000        -1.951949       -53.1152

  Creating fixed part of basis set: Ionic, confined, hydrogenic.
 
  Pd                   ion:

  List of free ionic orbitals and eigenvalues:
    n    l      energy [Ha]    energy [eV]
    1    0      -914.099884    -24873.9234
    2    0      -131.248265     -3571.4470
    3    0       -24.332473      -662.1203
    4    0        -4.059276      -110.4585
    2    1      -117.724296     -3203.4411
    3    1       -19.913908      -541.8850
    4    1        -2.795328       -76.0648
    3    2       -12.908733      -351.2645
    4    2        -1.004248       -27.3270


  List of ionic basis orbitals and eigenvalues:
    n    l      energy [Ha]    energy [eV]    outer radius [A]
    5    1        -0.516938       -14.0666       5.427025

 
  Pd                   hydrogenic:
 
  List of hydrogenic basis orbitals: 
    n    l      effective z      eigenvalue [eV]  inner max. [A]     outer max. [A]     outer radius [A]   
    4    3         8.000000       -54.4226           1.054686           1.054686           4.629581
    5    4        10.000000       -54.4226           1.330451           1.330451           5.043202
    3    0         2.600000        -9.8948           0.150992           2.606197           5.493778
    3    2         2.500000        -9.3396           1.873517           1.873517           5.493778
 
 
  Se                   ion:

  List of free ionic orbitals and eigenvalues:
    n    l      energy [Ha]    energy [eV]
    1    0      -467.261007    -12714.8189
    2    0       -60.104893     -1635.5374
    3    0        -8.743714      -237.9286
    4    0        -1.414053       -38.4783
    2    1       -52.964156     -1441.2280
    3    1        -6.516916      -177.3343
    4    1        -0.961869       -26.1738
    3    2        -2.844511       -77.4031


  List of ionic basis orbitals and eigenvalues:
    n    l      energy [Ha]    energy [eV]    outer radius [A]
    4    0        -1.414046       -38.4782       4.083166

 
  Se                   hydrogenic:
 
  List of hydrogenic basis orbitals: 
    n    l      effective z      eigenvalue [eV]  inner max. [A]     outer max. [A]     outer radius [A]   
    3    2         4.300000       -27.9518           1.103845           1.103845           5.278265
    2    1         1.600000        -8.6828           1.326010           1.326010           5.475439
    4    3         7.200000       -44.0822           1.173422           1.173422           4.965294
 

  Adding cutoff potential to free-atom effective potential.
  Creating atomic-like basis functions for current effective potential.

  Species Pd                  :

  List of atomic basis orbitals and eigenvalues:
    n    l      energy [Ha]    energy [eV]    outer radius [A]
    1    0      -913.269104    -24851.3168       0.223280
    2    0      -130.434372     -3549.2998       0.615909
    3    0       -23.521804      -640.0609       1.414312
    4    0        -3.256918       -88.6253       3.581357
    5    0        -0.157260        -4.2793       5.427025
    2    1      -116.910756     -3181.3035       0.631154
    3    1       -19.103344      -519.8284       1.540671
    4    1        -1.998052       -54.3697       4.408641
    3    2       -12.098182      -329.2083       1.806051
    4    2        -0.243389        -6.6230       5.361084


  Species Se                  :

  List of atomic basis orbitals and eigenvalues:
    n    l      energy [Ha]    energy [eV]    outer radius [A]
    1    0      -466.337810    -12689.6975       0.309561
    2    0       -59.202598     -1610.9847       0.885812
    3    0        -7.847116      -213.5309       2.355489
    4    0        -0.634372       -17.2621       5.214131
    2    1       -52.061107     -1416.6548       0.907737
    3    1        -5.620941      -152.9536       2.694529
    4    1        -0.238469        -6.4891       5.408909
    3    2        -1.951949       -53.1152       4.083166

  Assembling full basis from fixed parts.
  | Species Pd :   atomic orbital   1 s accepted.
  | Species Pd :   atomic orbital   2 s accepted.
  | Species Pd :   atomic orbital   3 s accepted.
  | Species Pd :   atomic orbital   4 s accepted.
  | Species Pd :   atomic orbital   5 s accepted.
  | Species Pd :    hydro orbital   3 s accepted.
  | Species Pd :   atomic orbital   2 p accepted.
  | Species Pd :   atomic orbital   3 p accepted.
  | Species Pd :   atomic orbital   4 p accepted.
  | Species Pd :    ionic orbital   5 p accepted.
  | Species Pd :   atomic orbital   3 d accepted.
  | Species Pd :   atomic orbital   4 d accepted.
  | Species Pd :    hydro orbital   3 d accepted.
  | Species Pd :    hydro orbital   4 f accepted.
  | Species Pd :    hydro orbital   5 g accepted.
  | Species Se :   atomic orbital   1 s accepted.
  | Species Se :   atomic orbital   2 s accepted.
  | Species Se :   atomic orbital   3 s accepted.
  | Species Se :    ionic orbital   4 s accepted.
  | Species Se :   atomic orbital   4 s accepted.
  | Species Se :   atomic orbital   2 p accepted.
  | Species Se :   atomic orbital   3 p accepted.
  | Species Se :   atomic orbital   4 p accepted.
  | Species Se :    hydro orbital   2 p accepted.
  | Species Se :   atomic orbital   3 d accepted.
  | Species Se :    hydro orbital   3 d accepted.
  | Species Se :    hydro orbital   4 f accepted.
 
  Basis size parameters after reduction:
  | Total number of radial functions:       27
  | Total number of basis functions :      468
 
  Per-task memory consumption for arrays in subroutine allocate_ext:
  |           9.993344MB.
  Testing on-site integration grid accuracy.
  |  Species  Function  <phi|h_atom|phi> (log., in eV)  <phi|h_atom|phi> (rad., in eV)
           1        1             -24851.3167505682             -24851.3148165635
           1        2              -3549.2998457785              -3549.2998098031
           1        3               -640.0608571327               -640.0608534886
           1        4                -88.6252603131                -88.6252593316
           1        5                 -4.2849374515                 -4.2849400622
           1        6                  4.9432123540                  4.9432188418
           1        7              -3181.3035399559              -3181.3035364574
           1        8               -519.8284281886               -519.8284264063
           1        9                -54.3697495804                -54.3697489261
           1       10                  0.8628369484                  0.8628370487
           1       11               -329.2082917394               -329.2082912864
           1       12                 -6.6230267036                 -6.6230265076
           1       13                  5.4924295291                  5.4924115607
           1       14                 25.0740861942                 25.0740861175
           1       15                 38.8271273823                 38.8271278029
           2       16             -12689.6974611609             -12689.6967666984
           2       17              -1610.9846578580              -1610.9846472470
           2       18               -213.5308789869               -213.5308777267
           2       19                -17.0464428502                -17.0464426496
           2       20                  6.7356859379                  6.7356842047
           2       21              -1416.6548010133              -1416.6548002108
           2       22               -152.9535734377               -152.9535727493
           2       23                 -6.4896265677                 -6.4896303794
           2       24                  5.2703037283                  5.2701679583
           2       25                -53.1152220964                -53.1152219035
           2       26                  7.6186674138                  7.6186665630
           2       27                 23.1072799052                 23.1072803137

  Preparing densities etc. for the partition functions (integrals / Hartree potential).

  Preparations completed.
  max(cpu_time)          :      0.550 s.
  Wall clock time (cpu1) :      0.630 s.
------------------------------------------------------------

------------------------------------------------------------
          Begin self-consistency loop: Initialization.

          Date     :  20200420, Time     :  204040.402
------------------------------------------------------------

  Initializing index lists of integration centers etc. from given atomic structure:
  Mapping all atomic coordinates to central unit cell.

  Initializing the k-points
  Using symmetry for reducing the k-points
  | k-points reduced from:      294 to      148
  | Number of k-points                             :       148
  The eigenvectors in the calculations are COMPLEX.
  | K-points in task   0:         6
  | K-points in task   1:         7
  | K-points in task   2:         7
  | K-points in task   3:         7
  | K-points in task   4:         7
  | K-points in task   5:         6
  | K-points in task   6:         6
  | K-points in task   7:         6
  | K-points in task   8:         6
  | K-points in task   9:         6
  | K-points in task  10:         6
  | K-points in task  11:         6
  | K-points in task  12:         6
  | K-points in task  13:         6
  | K-points in task  14:         6
  | K-points in task  15:         6
  | K-points in task  16:         6
  | K-points in task  17:         6
  | K-points in task  18:         6
  | K-points in task  19:         6
  | K-points in task  20:         6
  | K-points in task  21:         6
  | K-points in task  22:         6
  | K-points in task  23:         6
  | Number of basis functions in the Hamiltonian integrals :      5576
  | Number of basis functions in a single unit cell        :       468
  | Number of centers in hartree potential         :      1313
  | Number of centers in hartree multipole         :       766
  | Number of centers in electron density summation:       595
  | Number of centers in basis integrals           :       640
  | Number of centers in integrals                 :       236
  | Number of centers in hamiltonian               :       595
  | Consuming        198 KiB for k_phase.
  | Number of super-cells (origin) [n_cells]                     :         567
  | Number of super-cells (after PM_index) [n_cells]             :          86
  | Number of super-cells in hamiltonian [n_cells_in_hamiltonian]:          86
  | Size of matrix packed + index [n_hamiltonian_matrix_size] :     1290199

  Initializing relaxation algorithms.
  | Estimated reciprocal-space cutoff momentum G_max:         2.42651894 bohr^-1 .
  | Reciprocal lattice points for long-range Hartree potential:     418
  Partitioning the integration grid into batches with parallel hashing+maxmin method.
  | Number of batches:     4166
  | Maximal batch size:     110
  | Minimal batch size:      50
  | Average batch size:      92.207
  | Standard deviation of batch sizes:      10.968

  Integration load balanced across    24 MPI tasks.
  Work distribution over tasks is as follows:
  Task     0 has      16015 integration points.
  Task     1 has      15976 integration points.
  Task     2 has      16050 integration points.
  Task     3 has      15989 integration points.
  Task     4 has      16000 integration points.
  Task     5 has      16048 integration points.
  Task     6 has      15982 integration points.
  Task     7 has      15999 integration points.
  Task     8 has      16014 integration points.
  Task     9 has      15993 integration points.
  Task    10 has      16012 integration points.
  Task    11 has      15976 integration points.
  Task    12 has      15992 integration points.
  Task    13 has      15993 integration points.
  Task    14 has      16046 integration points.
  Task    15 has      15988 integration points.
  Task    16 has      16044 integration points.
  Task    17 has      16008 integration points.
  Task    18 has      15976 integration points.
  Task    19 has      16047 integration points.
  Task    20 has      16013 integration points.
  Task    21 has      15980 integration points.
  Task    22 has      15987 integration points.
  Task    23 has      16008 integration points.
  Initializing partition tables, free-atom densities, potentials, etc. across the integration grid (initialize_grid_storage).
  | initialize_grid_storage: Actual outermost partition radius vs. multipole_radius_free
  | (-- VB: in principle, multipole_radius_free should be larger, hence this output)
  | Species        1: Confinement radius =              6.000000000000000 AA, multipole_radius_free =              6.058219618167466 AA.
  | Species        1: outer_partition_radius set to              6.058219618167466 AA .
  | Species        2: Confinement radius =              6.000000000000000 AA, multipole_radius_free =              6.037996416842453 AA.
  | Species        2: outer_partition_radius set to              6.037996416842453 AA .
  | The sparse table of interatomic distances needs       2892.72 kbyte instead of      3276.80 kbyte of memory.
  | Net number of integration points:   384136
  | of which are non-zero points    :   322184
  | Numerical average free-atom electrostatic potential    :    -17.03660951 eV
  Renormalizing the initial density to the exact electron count on the 3D integration grid.
  | Initial density: Formal number of electrons (from input files) :     456.0000000000
  | Integrated number of electrons on 3D grid     :     456.0000456703
  | Charge integration error                      :       0.0000456703
  | Normalization factor for density and gradient :       0.9999998998
  Renormalizing the free-atom superposition density to the exact electron count on the 3D integration grid.
  | Formal number of electrons (from input files) :     456.0000000000
  | Integrated number of electrons on 3D grid     :     456.0000456703
  | Charge integration error                      :       0.0000456703
  | Normalization factor for density and gradient :       0.9999998998
  Obtaining max. number of non-zero basis functions in each batch (get_n_compute_maxes).
  | Maximal number of non-zero basis functions:     1019 in task     0
  | Maximal number of non-zero basis functions:     1019 in task     1
  | Maximal number of non-zero basis functions:     1023 in task     2
  | Maximal number of non-zero basis functions:      994 in task     3
  | Maximal number of non-zero basis functions:     1040 in task     4
  | Maximal number of non-zero basis functions:     1037 in task     5
  | Maximal number of non-zero basis functions:     1024 in task     6
  | Maximal number of non-zero basis functions:     1011 in task     7
  | Maximal number of non-zero basis functions:     1024 in task     8
  | Maximal number of non-zero basis functions:     1025 in task     9
  | Maximal number of non-zero basis functions:     1016 in task    10
  | Maximal number of non-zero basis functions:     1035 in task    11
  | Maximal number of non-zero basis functions:     1031 in task    12
  | Maximal number of non-zero basis functions:     1017 in task    13
  | Maximal number of non-zero basis functions:     1016 in task    14
  | Maximal number of non-zero basis functions:     1015 in task    15
  | Maximal number of non-zero basis functions:     1051 in task    16
  | Maximal number of non-zero basis functions:     1012 in task    17
  | Maximal number of non-zero basis functions:     1009 in task    18
  | Maximal number of non-zero basis functions:     1029 in task    19
  | Maximal number of non-zero basis functions:     1027 in task    20
  | Maximal number of non-zero basis functions:     1017 in task    21
  | Maximal number of non-zero basis functions:     1022 in task    22
  | Maximal number of non-zero basis functions:     1010 in task    23
  Allocating       12.597 MB for KS_eigenvector_complex
  Integrating Hamiltonian matrix: batch-based integration.
  Time summed over all CPUs for integration: real work       63.894 s, elapsed       64.553 s
  Integrating overlap matrix.
  Time summed over all CPUs for integration: real work       45.860 s, elapsed       46.420 s
  Decreasing sparse matrix size:
  | Tolerance:  0.1000E-12
  Hamiltonian matrix
  | Array has  1116760 nonzero elements out of  1290199 elements
  | Sparsity factor is 0.134
  Overlap matrix
  | Array has  1031321 nonzero elements out of  1290199 elements
  | Sparsity factor is 0.201
  New size of hamiltonian matrix:     1116841

  Updating Kohn-Sham eigenvalues and eigenvectors using ELSI and the (modified) LAPACK eigensolver.
  Singularity check in k-point 24, task 0 (analysis for other k-points/tasks may follow below):
  Overlap matrix is not singular
  | Lowest and highest eigenvalues :  0.5616E-03,  0.7259E+01
  Finished singularity check of overlap matrix
  | Time :     0.109 s
  Starting LAPACK eigensolver
  Finished Cholesky decomposition
  | Time :     0.019 s
  Finished transformation to standard eigenproblem
  | Time :     0.021 s
  Finished solving standard eigenproblem
  | Time :     0.072 s
  Finished back-transformation of eigenvectors
  | Time :     0.008 s

  Obtaining occupation numbers and chemical potential using ELSI.
  | Chemical potential (Fermi level):    -4.64171061 eV
  Writing Kohn-Sham eigenvalues.
  K-point:       1 at    0.000000    0.000000    0.000000 (in units of recip. lattice)

  State    Occupation    Eigenvalue [Ha]    Eigenvalue [eV]
      1       2.00000        -913.279537       -24851.60064
      2       2.00000        -913.279531       -24851.60047
      3       2.00000        -913.279518       -24851.60012
      4       2.00000        -913.279403       -24851.59699
      5       2.00000        -466.350406       -12690.04022
      6       2.00000        -466.350343       -12690.03851
      7       2.00000        -466.350277       -12690.03671
      8       2.00000        -466.350275       -12690.03665
      9       2.00000        -466.350271       -12690.03654
     10       2.00000        -466.350255       -12690.03610
     11       2.00000        -466.350211       -12690.03490
     12       2.00000        -466.350183       -12690.03413
     13       2.00000        -130.445122        -3549.59236
     14       2.00000        -130.445115        -3549.59219
     15       2.00000        -130.445102        -3549.59184
     16       2.00000        -130.444986        -3549.58868
     17       2.00000        -116.921530        -3181.59671
     18       2.00000        -116.921524        -3181.59654
     19       2.00000        -116.921521        -3181.59647
     20       2.00000        -116.921515        -3181.59629
     21       2.00000        -116.921511        -3181.59618
     22       2.00000        -116.921502        -3181.59595
     23       2.00000        -116.921467        -3181.59498
     24       2.00000        -116.921460        -3181.59482
     25       2.00000        -116.921448        -3181.59447
     26       2.00000        -116.921394        -3181.59302
     27       2.00000        -116.921386        -3181.59278
     28       2.00000        -116.921332        -3181.59132
     29       2.00000         -59.215622        -1611.33905
     30       2.00000         -59.215558        -1611.33730
     31       2.00000         -59.215490        -1611.33548
     32       2.00000         -59.215489        -1611.33544
     33       2.00000         -59.215484        -1611.33531
     34       2.00000         -59.215468        -1611.33486
     35       2.00000         -59.215423        -1611.33365
     36       2.00000         -59.215394        -1611.33286
     37       2.00000         -52.074137        -1417.00938
     38       2.00000         -52.074114        -1417.00873
     39       2.00000         -52.074074        -1417.00766
     40       2.00000         -52.074063        -1417.00736
     41       2.00000         -52.074049        -1417.00696
     42       2.00000         -52.074008        -1417.00584
     43       2.00000         -52.074004        -1417.00575
     44       2.00000         -52.074001        -1417.00566
     45       2.00000         -52.074000        -1417.00563
     46       2.00000         -52.073984        -1417.00521
     47       2.00000         -52.073982        -1417.00514
     48       2.00000         -52.073981        -1417.00512
     49       2.00000         -52.073975        -1417.00497
     50       2.00000         -52.073959        -1417.00451
     51       2.00000         -52.073939        -1417.00398
     52       2.00000         -52.073934        -1417.00383
     53       2.00000         -52.073932        -1417.00378
     54       2.00000         -52.073927        -1417.00365
     55       2.00000         -52.073915        -1417.00331
     56       2.00000         -52.073911        -1417.00322
     57       2.00000         -52.073911        -1417.00321
     58       2.00000         -52.073886        -1417.00252
     59       2.00000         -52.073867        -1417.00202
     60       2.00000         -52.073838        -1417.00124
     61       2.00000         -23.533318         -640.37416
     62       2.00000         -23.533311         -640.37398
     63       2.00000         -23.533298         -640.37361
     64       2.00000         -23.533174         -640.37024
     65       2.00000         -19.115115         -520.14874
     66       2.00000         -19.115108         -520.14856
     67       2.00000         -19.115092         -520.14811
     68       2.00000         -19.115027         -520.14634
     69       2.00000         -19.115019         -520.14613
     70       2.00000         -19.115008         -520.14583
     71       2.00000         -19.114967         -520.14472
     72       2.00000         -19.114881         -520.14237
     73       2.00000         -19.114487         -520.13165
     74       2.00000         -19.114482         -520.13151
     75       2.00000         -19.114468         -520.13114
     76       2.00000         -19.114348         -520.12787
     77       2.00000         -12.109922         -329.52775
     78       2.00000         -12.109915         -329.52755
     79       2.00000         -12.109901         -329.52717
     80       2.00000         -12.109886         -329.52678
     81       2.00000         -12.109879         -329.52658
     82       2.00000         -12.109865         -329.52619
     83       2.00000         -12.109775         -329.52374
     84       2.00000         -12.109739         -329.52278
     85       2.00000         -12.109538         -329.51731
     86       2.00000         -12.109533         -329.51715
     87       2.00000         -12.109517         -329.51673
     88       2.00000         -12.109482         -329.51577
     89       2.00000         -12.109475         -329.51559
     90       2.00000         -12.109464         -329.51527
     91       2.00000         -12.109398         -329.51348
     92       2.00000         -12.109396         -329.51344
     93       2.00000         -12.109392         -329.51333
     94       2.00000         -12.109379         -329.51297
     95       2.00000         -12.109341         -329.51193
     96       2.00000         -12.109258         -329.50967
     97       2.00000          -7.861944         -213.93438
     98       2.00000          -7.861868         -213.93232
     99       2.00000          -7.861797         -213.93037
    100       2.00000          -7.861792         -213.93025
    101       2.00000          -7.861787         -213.93010
    102       2.00000          -7.861768         -213.92958
    103       2.00000          -7.861718         -213.92824
    104       2.00000          -7.861686         -213.92736
    105       2.00000          -5.636354         -153.37299
    106       2.00000          -5.636289         -153.37122
    107       2.00000          -5.636212         -153.36912
    108       2.00000          -5.636201         -153.36883
    109       2.00000          -5.636196         -153.36869
    110       2.00000          -5.636179         -153.36825
    111       2.00000          -5.636121         -153.36666
    112       2.00000          -5.636105         -153.36623
    113       2.00000          -5.636092         -153.36586
    114       2.00000          -5.636019         -153.36387
    115       2.00000          -5.635943         -153.36180
    116       2.00000          -5.635927         -153.36137
    117       2.00000          -5.635918         -153.36112
    118       2.00000          -5.635909         -153.36089
    119       2.00000          -5.635834         -153.35884
    120       2.00000          -5.635806         -153.35808
    121       2.00000          -5.635425         -153.34772
    122       2.00000          -5.635352         -153.34573
    123       2.00000          -5.635288         -153.34398
    124       2.00000          -5.635285         -153.34390
    125       2.00000          -5.635277         -153.34370
    126       2.00000          -5.635262         -153.34329
    127       2.00000          -5.635218         -153.34209
    128       2.00000          -5.635186         -153.34120
    129       2.00000          -3.273991          -89.08983
    130       2.00000          -3.273982          -89.08959
    131       2.00000          -3.273962          -89.08904
    132       2.00000          -3.273781          -89.08412
    133       2.00000          -2.020322          -54.97575
    134       2.00000          -2.020314          -54.97554
    135       2.00000          -2.020248          -54.97375
    136       2.00000          -2.020035          -54.96794
    137       2.00000          -2.019305          -54.94807
    138       2.00000          -2.019302          -54.94801
    139       2.00000          -2.019261          -54.94690
    140       2.00000          -2.019037          -54.94080
    141       2.00000          -2.013045          -54.77775
    142       2.00000          -2.013042          -54.77766
    143       2.00000          -2.013027          -54.77725
    144       2.00000          -2.012866          -54.77288
    145       2.00000          -1.969363          -53.58910
    146       2.00000          -1.969257          -53.58622
    147       2.00000          -1.969160          -53.58358
    148       2.00000          -1.969132          -53.58282
    149       2.00000          -1.968290          -53.55989
    150       2.00000          -1.968218          -53.55793
    151       2.00000          -1.968125          -53.55542
    152       2.00000          -1.968106          -53.55489
    153       2.00000          -1.967828          -53.54732
    154       2.00000          -1.967795          -53.54643
    155       2.00000          -1.967708          -53.54406
    156       2.00000          -1.967707          -53.54404
    157       2.00000          -1.967693          -53.54365
    158       2.00000          -1.967656          -53.54263
    159       2.00000          -1.967564          -53.54015
    160       2.00000          -1.967555          -53.53991
    161       2.00000          -1.967409          -53.53593
    162       2.00000          -1.967371          -53.53489
    163       2.00000          -1.967360          -53.53460
    164       2.00000          -1.967315          -53.53337
    165       2.00000          -1.967290          -53.53270
    166       2.00000          -1.967289          -53.53265
    167       2.00000          -1.967265          -53.53199
    168       2.00000          -1.967249          -53.53157
    169       2.00000          -1.967240          -53.53132
    170       2.00000          -1.967229          -53.53103
    171       2.00000          -1.967220          -53.53078
    172       2.00000          -1.967212          -53.53057
    173       2.00000          -1.967169          -53.52939
    174       2.00000          -1.967160          -53.52913
    175       2.00000          -1.967144          -53.52871
    176       2.00000          -1.967118          -53.52800
    177       2.00000          -1.966733          -53.51752
    178       2.00000          -1.966689          -53.51634
    179       2.00000          -1.966616          -53.51434
    180       2.00000          -1.966602          -53.51397
    181       2.00000          -1.966378          -53.50788
    182       2.00000          -1.966342          -53.50689
    183       2.00000          -1.966266          -53.50481
    184       2.00000          -1.966259          -53.50463
    185       2.00000          -0.759532          -20.66792
    186       2.00000          -0.740953          -20.16235
    187       2.00000          -0.720620          -19.60907
    188       2.00000          -0.718810          -19.55981
    189       2.00000          -0.652597          -17.75808
    190       2.00000          -0.640623          -17.43223
    191       2.00000          -0.639214          -17.39390
    192       2.00000          -0.627566          -17.07693
    193       2.00000          -0.418514          -11.38836
    194       2.00000          -0.410700          -11.17572
    195       2.00000          -0.389254          -10.59214
    196       2.00000          -0.376467          -10.24419
    197       2.00000          -0.370636          -10.08551
    198       2.00000          -0.369100          -10.04373
    199       2.00000          -0.366870           -9.98305
    200       2.00000          -0.366218           -9.96530
    201       2.00000          -0.364843           -9.92789
    202       2.00000          -0.363145           -9.88167
    203       2.00000          -0.361165           -9.82779
    204       2.00000          -0.351812           -9.57329
    205       2.00000          -0.341589           -9.29512
    206       2.00000          -0.330691           -8.99857
    207       2.00000          -0.324222           -8.82252
    208       2.00000          -0.316254           -8.60572
    209       2.00000          -0.316027           -8.59954
    210       2.00000          -0.306329           -8.33563
    211       2.00000          -0.288647           -7.85449
    212       2.00000          -0.286367           -7.79245
    213       2.00000          -0.285235           -7.76165
    214       2.00000          -0.280098           -7.62187
    215       2.00000          -0.279058           -7.59357
    216       2.00000          -0.277245           -7.54422
    217       2.00000          -0.276276           -7.51786
    218       2.00000          -0.275733           -7.50307
    219       2.00000          -0.273668           -7.44690
    220       2.00000          -0.270360           -7.35688
    221       2.00000          -0.265275           -7.21851
    222       2.00000          -0.263485           -7.16980
    223       2.00000          -0.263222           -7.16262
    224       2.00000          -0.257620           -7.01019
    225       2.00000          -0.224525           -6.10962
    226       2.00000          -0.215448           -5.86265
    227       2.00000          -0.213152           -5.80016
    228       0.00000          -0.165508           -4.50371
    229       0.00000          -0.152070           -4.13803
    230       0.00000          -0.135334           -3.68262
    231       0.00000          -0.129967           -3.53658
    232       0.00000          -0.128763           -3.50382
    233       0.00000          -0.125807           -3.42338
    234       0.00000          -0.115624           -3.14628
    235       0.00000          -0.114831           -3.12472
    236       0.00000          -0.081979           -2.23076
    237       0.00000          -0.037509           -1.02068
    238       0.00000          -0.030656           -0.83419
    239       0.00000          -0.003645           -0.09920
    240       0.00000           0.020640            0.56165
    241       0.00000           0.025127            0.68373
    242       0.00000           0.026359            0.71725
    243       0.00000           0.056652            1.54158
    244       0.00000           0.089396            2.43260
    245       0.00000           0.103037            2.80378
    246       0.00000           0.111219            3.02643
    247       0.00000           0.119064            3.23989
    248       0.00000           0.122285            3.32753
    249       0.00000           0.125418            3.41280
    250       0.00000           0.125912            3.42623
    251       0.00000           0.136953            3.72668
    252       0.00000           0.151336            4.11807
    253       0.00000           0.160963            4.38001
    254       0.00000           0.171782            4.67443
    255       0.00000           0.176816            4.81140
    256       0.00000           0.189481            5.15605
    257       0.00000           0.191576            5.21305
    258       0.00000           0.197798            5.38237
    259       0.00000           0.219805            5.98119
    260       0.00000           0.231644            6.30335
    261       0.00000           0.247822            6.74357
    262       0.00000           0.257657            7.01120
    263       0.00000           0.266976            7.26478
    264       0.00000           0.280649            7.63685
    265       0.00000           0.280970            7.64558
[...]
  |                x                y                z                |
  |                                                                   |
  |  x        -0.00018240      -0.00001104       0.00002457           |
  |  y        -0.00001104       0.00019015      -0.00001495           |
  |  z         0.00002457      -0.00001495      -0.00003586           |
  |                                                                   |
  |  Pressure:       0.00000937   [eV/A**3]                           |
  |                                                                   |
  +-------------------------------------------------------------------+

 * Warning: Stress tensor is anisotropic. Be aware that pressure is an isotropic quantity.


  Leaving Libmbd.

  Timings for VdW correction (Tkatchenko-Scheffler 2009 or later):
  | CPU time:        4.137 s, Wall clock time:        4.139 s.
  Removing unitary transformations (pure translations, rotations) from forces on atoms.
  Atomic forces before filtering:
  | Net force on center of mass :   0.102402E-03  0.841805E-04  0.871460E-04 eV/A
  Atomic forces after filtering:
  | Net force on center of mass :   0.696899E-18 -0.696899E-18  0.000000E+00 eV/A

  Energy and forces in a compact form:
  | Total energy uncorrected      :         -0.108791111701426E+07 eV
  | Total energy corrected        :         -0.108791111804651E+07 eV  <-- do not rely on this value for anything but (periodic) metals
  | Electronic free energy        :         -0.108791111907876E+07 eV
  Total atomic forces (unitary forces cleaned) [eV/Ang]:
  |    1         -0.658391697069323E-03         -0.740591360591684E-03          0.902295587873019E-03
  |    2          0.353475318105901E-02         -0.196503616278154E-02          0.990692254149705E-03
  |    3         -0.215303443479155E-02         -0.239108521837710E-03          0.188273617508967E-02
  |    4          0.485404447642191E-03         -0.537225275430439E-02         -0.703130214973693E-03
  |    5          0.128105557377476E-02          0.184497348054763E-02         -0.257477137449622E-02
  |    6          0.561194262988394E-03         -0.235248834540244E-02         -0.808362707384585E-02
  |    7         -0.413008378669426E-02          0.529228223228851E-02          0.269963548440410E-02
  |    8         -0.238568735611894E-02         -0.268809624039066E-02          0.319546195123979E-02
  |    9         -0.566062775986683E-03          0.108765115402553E-02          0.312883151459710E-02
  |   10          0.136819175088320E-02          0.371063906697583E-02          0.472388356687589E-02
  |   11         -0.912258342897636E-03         -0.572889038605973E-03         -0.877149748997170E-03
  |   12          0.357491917721084E-02          0.199491649007691E-02         -0.528485812191633E-02

  ------------------------------------ 
  Start decomposition of the XC Energy 
  ------------------------------------ 
  X and C from original XC functional choice 
  Hartree-Fock Energy :          0.000000000 Ha              0.000000000 eV
  X Energy            :      -1261.088358021 Ha         -34315.960198590 eV
  C Energy            :        -23.235747806 Ha           -632.276867693 eV
  Total XC Energy     :      -1284.324105827 Ha         -34948.237066283 eV
  ------------------------------------ 
  LDA X and C from self-consistent density 
  X Energy LDA        :      -1197.516676352 Ha         -32586.086725389 eV
  C Energy LDA        :        -42.068009352 Ha          -1144.728777638 eV
  ------------------------------------ 
  End decomposition of the XC Energy 
  ------------------------------------ 

------------------------------------------------------------
  Relaxation / MD: End force evaluation.       :  max(cpu_time)    wall_clock(cpu1)
  | Time for this force evaluation             :      326.687 s         326.915 s

------------------------------------------------------------
  Geometry optimization: Attempting to predict improved coordinates.

  +-------------------------------------------------------------------+
  | Generalized derivatives on lattice vectors [eV/A]                 |
  +-------------------------------------------------------------------+
  |lattice_vector      -0.00819250      -0.00049588       0.00110335  |
  |lattice_vector      -0.00048644       0.00837823      -0.00065858  |
  |lattice_vector       0.00085345      -0.00051930      -0.00124589  |
  +-------------------------------------------------------------------+
  | Forces on lattice vectors cleaned from atomic contributions [eV/A]|
  +-------------------------------------------------------------------+
  |lattice_vector       0.00819250       0.00049588      -0.00110335  |
  |lattice_vector       0.00048644      -0.00837823       0.00065858  |
  |lattice_vector      -0.00085345       0.00051930       0.00124589  |
  +-------------------------------------------------------------------+
  Symmetrized total atomic cartesian forces [eV/Ang]:
  |   1    -0.6583916971E-03    -0.7405913606E-03     0.9022955879E-03
  |   2     0.3534753181E-02    -0.1965036163E-02     0.9906922541E-03
  |   3    -0.2153034435E-02    -0.2391085218E-03     0.1882736175E-02
  |   4     0.4854044476E-03    -0.5372252754E-02    -0.7031302150E-03
  |   5     0.1281055574E-02     0.1844973481E-02    -0.2574771374E-02
  |   6     0.5611942630E-03    -0.2352488345E-02    -0.8083627074E-02
  |   7    -0.4130083787E-02     0.5292282232E-02     0.2699635484E-02
  |   8    -0.2385687356E-02    -0.2688096240E-02     0.3195461951E-02
  |   9    -0.5660627760E-03     0.1087651154E-02     0.3128831515E-02
  |  10     0.1368191751E-02     0.3710639067E-02     0.4723883567E-02
  |  11    -0.9122583429E-03    -0.5728890386E-03    -0.8771497490E-03
  |  12     0.3574919177E-02     0.1994916490E-02    -0.5284858122E-02
  +-------------------------------------------------------------------+
  | Symmetrized forces on lattice vectors cleaned from symmetrized
  | atomic contributions [eV/A]|
  +-------------------------------------------------------------------+
  |lattice_vector       0.00819250       0.00000000       0.00000000  |
  |lattice_vector       0.00000000      -0.00837823       0.00000000  |
  |lattice_vector       0.00000000       0.00000000       0.00124589  |
  +-------------------------------------------------------------------+
  Removing unitary transformations (pure translations, rotations) from forces on atoms.
  Atomic forces before filtering:
  | Net force on center of mass :   0.000000E+00 -0.348449E-18  0.000000E+00 eV/A
  Atomic forces after filtering:
  | Net force on center of mass :  -0.696899E-18 -0.348449E-18  0.000000E+00 eV/A
  Net remaining forces (excluding translations, rotations) in present geometry:
  || Forces on atoms   || =   0.808363E-02 eV/A.
  || Forces on lattice || =   0.837823E-02 eV/A^3.
  Maximum force component is  0.837823E-02 eV/A.
  Present geometry is converged.

  Symmetry-reduced parameters:
  | atomic   1          0.501722738640086E+00
  | atomic   2          0.174046122552306E-02
  | atomic   3          0.179504245199532E-02
  | atomic   4          0.166133639331580E-02
  | atomic   5          0.172806973333226E-02
  | atomic   6          0.501597137405055E+00
  | atomic   7          0.177314873921374E-02
  | atomic   8          0.501708488785537E+00
  | atomic   9          0.169873998319520E-02
  | atomic  10          0.501746258141095E+00
  | atomic  11          0.501811225873957E+00
  | atomic  12          0.501666645309013E+00
  | atomic  13          0.613697081540736E+00
  | atomic  14          0.120169782849922E+00
  | atomic  15          0.405257431287158E+00
  | atomic  16          0.889614539328861E+00
  | atomic  17          0.883281610824881E+00
  | atomic  18          0.905397838181639E+00
  | atomic  19          0.113894685167352E+00
  | atomic  20          0.383167423070345E+00
  | atomic  21          0.598106960264664E+00
  | atomic  22          0.389689211992875E+00
  | atomic  23          0.620219837334703E+00
  | atomic  24          0.981913548970659E-01
  | atomic  25          0.389596898528258E+00
  | atomic  26          0.883283830792061E+00
  | atomic  27          0.598129906148965E+00
  | atomic  28          0.113763191607116E+00
  | atomic  29          0.120134150388969E+00
  | atomic  30          0.981719087357504E-01
  | atomic  31          0.889727160357279E+00
  | atomic  32          0.620131844654806E+00
  | atomic  33          0.405251703515187E+00
  | atomic  34          0.613748321752628E+00
  | atomic  35          0.383257865071891E+00
  | atomic  36          0.905369930656416E+00
  | lattice  1          0.583787780635342E+01
  | lattice  2          0.595117711024721E+01
  | lattice  3          0.754726953821378E+01
  Symmetry-reduced forces:
  | atomic   1         -0.384361027620837E-02
  | atomic   2         -0.440739035320007E-02
  | atomic   3          0.680986800481874E-02
  | atomic   4          0.206354571466416E-01
  | atomic   5         -0.116942782327535E-01
  | atomic   6          0.747702147148841E-02
  | atomic   7         -0.125691519431843E-01
  | atomic   8         -0.142297716202562E-02
  | atomic   9          0.142095173827474E-01
  | atomic  10          0.283373185199558E-02
  | atomic  11         -0.319712276218788E-01
  | atomic  12         -0.530671325286867E-02
  | atomic  13          0.747864590284499E-02
  | atomic  14          0.109797639464482E-01
  | atomic  15         -0.194324935626002E-01
  | atomic  16          0.327618353295281E-02
  | atomic  17         -0.140000747932824E-01
  | atomic  18         -0.610093123727170E-01
  | atomic  19         -0.241109244767225E-01
  | atomic  20          0.314953088817634E-01
  | atomic  21          0.203748766557241E-01
  | atomic  22         -0.139273512691847E-01
  | atomic  23         -0.159973368159545E-01
  | atomic  24          0.241170126451132E-01
  | atomic  25         -0.330460531693546E-02
  | atomic  26          0.647280465177069E-02
  | atomic  27          0.236141347803220E-01
  | atomic  28          0.798733625731684E-02
  | atomic  29          0.220826702797756E-01
  | atomic  30          0.356524225463510E-01
  | atomic  31         -0.532565273366286E-02
  | atomic  32         -0.340936413326340E-02
  | atomic  33         -0.662008558105821E-02
  | atomic  34          0.208699413241464E-01
  | atomic  35          0.118721013526004E-01
  | atomic  36         -0.398862487173209E-01
  | lattice  1          0.819250187836921E-02
  | lattice  2         -0.837822608334169E-02
  | lattice  3          0.124589338204798E-02
------------------------------------------------------------
  Final atomic structure:
                         x [A]             y [A]             z [A]
  lattice_vector         5.83787781        0.00000000        0.00000000
  lattice_vector         0.00000000        5.95117711        0.00000000
  lattice_vector         0.00000000        0.00000000        7.54726954

            atom        -2.90888177        0.01035779        0.01354767  Pd
            atom         0.00969868        0.01028405       -3.76158074  Pd
            atom         0.01035143       -2.96542104        0.01282085  Pd
            atom        -2.90874446       -2.96480963       -3.76105615  Pd
            atom        -2.25518923        0.71515166        3.05858707  Se
            atom        -0.64441683       -0.69461181       -0.71398801  Se
            atom         0.66490325        2.28029720       -3.03319510  Se
            atom         2.27495800       -2.26013901        0.74107662  Se
            atom         2.27441909       -0.69459859       -3.03302192  Se
            atom         0.66413561        0.71493961        0.74092986  Se
            atom        -0.64375936       -2.26066267        3.05854384  Se
            atom        -2.25489010        2.28083543       -0.71419864  Se

  Fractional coordinates:
                         L1                L2                L3
       atom_frac        -0.49827726        0.00174046        0.00179504  Pd
       atom_frac         0.00166134        0.00172807       -0.49840286  Pd
       atom_frac         0.00177315       -0.49829151        0.00169874  Pd
       atom_frac        -0.49825374       -0.49818877       -0.49833335  Pd
       atom_frac        -0.38630292        0.12016978        0.40525743  Se
       atom_frac        -0.11038546       -0.11671839       -0.09460216  Se
       atom_frac         0.11389469        0.38316742       -0.40189304  Se
       atom_frac         0.38968921       -0.37978016        0.09819135  Se
       atom_frac         0.38959690       -0.11671617       -0.40187009  Se
       atom_frac         0.11376319        0.12013415        0.09817191  Se
       atom_frac        -0.11027284       -0.37986816        0.40525170  Se
       atom_frac        -0.38625168        0.38325787       -0.09463007  Se
------------------------------------------------------------

------------------------------------------------------------------------------
  Final output of selected total energy values:

  The following output summarizes some interesting total energy values
  at the end of a run (AFTER all relaxation, molecular dynamics, etc.).

  | Total energy of the DFT / Hartree-Fock s.c.f. calculation      :       -1087911.117014258 eV
  | Final zero-broadening corrected energy (caution - metals only) :       -1087911.118046510 eV
  | For reference only, the value of 1 Hartree used in FHI-aims is :             27.211384500 eV
  | For reference only, the overall average (free atom contribution
  | + realspace contribution) of the electrostatic potential after
  | s.c.f. convergence is                                          :            -16.896637003 eV

  Before relying on these values, please be sure to understand exactly which
  total energy value is referred to by a given number. Different objects may
  all carry the same name 'total energy'. Definitions:

  Total energy of the DFT / Hartree-Fock s.c.f. calculation:
  | Note that this energy does not include ANY quantities calculated after the
  | s.c.f. cycle, in particular not ANY RPA, MP2, etc. many-body perturbation terms.

  Final zero-broadening corrected energy:
  | For metallic systems only, a broadening of the occupation numbers at the Fermi
  | level can be extrapolated back to zero broadening by an electron-gas inspired
  | formula. For all systems that are not real metals, this value can be
  | meaningless and should be avoided.

------------------------------------------------------------------------------
  Methods described in the following list of references were used in this FHI-aims run.
  If you publish the results, please make sure to cite these reference if they apply.
  FHI-aims is an academic code, and for our developers (often, Ph.D. students
  and postdocs), scientific credit in the community is essential.
  Thank you for helping us!

  For any use of FHI-aims, please cite:

    Volker Blum, Ralf Gehrke, Felix Hanke, Paula Havu, Ville Havu,
    Xinguo Ren, Karsten Reuter, and Matthias Scheffler
    'Ab initio molecular simulations with numeric atom-centered orbitals'
    Computer Physics Communications 180, 2175-2196 (2009)
    http://dx.doi.org/10.1016/j.cpc.2009.06.022


  For the analytical stress tensor used in your run, please cite:

    Franz Knuth, Christian Carbogno, Viktor Atalla, Volker Blum, Matthias Scheffler
    'All-electron formalism for total energy strain derivatives and
    stress tensor components for numeric atom-centered orbitals'
    Computer Physics Communications 190, 33-50 (2015).
    http://dx.doi.org/10.1016/j.cpc.2015.01.003


  The provided symmetry information was generated with SPGlib:

    Atsushi Togo, Yusuke Seto, Dimitar Pashov
    SPGlib 1.7.3 obtained from http://spglib.sourceforge.net
    Copyright (C) 2008 Atsushi Togo


  The ELSI infrastructure was used in your run to solve the Kohn-Sham electronic structure.
  Please check out http://elsi-interchange.org to learn more.
  If scalability is important for your project, please acknowledge ELSI by citing:

    V. W-z. Yu, F. Corsetti, A. Garcia, W. P. Huhn, M. Jacquelin, W. Jia,
    B. Lange, L. Lin, J. Lu, W. Mi, A. Seifitokaldani, A. Vazquez-Mayagoitia,
    C. Yang, H. Yang, and V. Blum
    'ELSI: A unified software interface for Kohn-Sham electronic structure solvers'
    Computer Physics Communications 222, 267-285 (2018).
    http://dx.doi.org/10.1016/j.cpc.2017.09.007


  For the real-space grid partitioning and parallelization used in this calculation, please cite:

    Ville Havu, Volker Blum, Paula Havu, and Matthias Scheffler,
    'Efficient O(N) integration for all-electron electronic structure calculation'
    'using numerically tabulated basis functions'
    Journal of Computational Physics 228, 8367-8379 (2009).
    http://dx.doi.org/10.1016/j.jcp.2009.08.008

  Of course, there are many other important community references, e.g., those cited in the
  above references. Our list is limited to references that describe implementations in the
  FHI-aims code. The reason is purely practical (length of this list) - please credit others as well.

------------------------------------------------------------
          Leaving FHI-aims.
          Date     :  20200420, Time     :  211246.243

          Computational steps:
          | Number of self-consistency cycles          :          109
          | Number of SCF (re)initializations          :            5
          | Number of relaxation steps                 :            4

          Detailed time accounting                     :  max(cpu_time)    wall_clock(cpu1)
          | Total time                                 :     1926.009 s        1927.455 s
          | Preparation time                           :        0.550 s           0.630 s
          | Boundary condition initalization           :        0.598 s           0.596 s
          | Grid partitioning                          :        1.706 s           1.706 s
          | Preloading free-atom quantities on grid    :        4.612 s           4.613 s
          | Free-atom superposition energy             :        0.716 s           0.715 s
          | Total time for integrations                :      304.075 s         304.120 s
          | Total time for solution of K.-S. equations :      111.506 s         111.648 s
          | Total time for EV reorthonormalization     :        1.385 s           1.231 s
          | Total time for density & force components  :     1152.410 s        1152.564 s
          | Total time for mixing & preconditioning    :       81.495 s          81.538 s
          | Total time for Hartree multipole update    :        0.464 s           0.472 s
          | Total time for Hartree multipole sum       :      243.676 s         243.700 s
          | Total time for total energy evaluation     :        0.169 s           0.185 s
          | Total time for scaled ZORA corrections     :        0.000 s           0.000 s
          | Total time for vdW correction              :       20.699 s          20.712 s

          Partial memory accounting:
          | Residual value for overall tracked memory usage across tasks:     0.000000 MB (should be 0.000000 MB)
          | Peak values for overall tracked memory usage:
          |   Minimum:       71.414 MB (on task 21 after allocating d_wave)
          |   Maximum:       76.341 MB (on task  2 after allocating d_wave)
          |   Average:       72.679 MB
          | Largest tracked array allocation:
          |   Minimum:       12.597 MB (KS_eigenvector_complex on task  0)
          |   Maximum:       14.696 MB (KS_eigenvector_complex on task  1)
          |   Average:       12.947 MB
          Note:  These values currently only include a subset of arrays which are explicitly tracked.
          The "true" memory usage will be greater.

          Have a nice day.
------------------------------------------------------------
