------------------------------------------------------------
          Invoking FHI-aims ...

          When using FHI-aims, please cite the following reference:

          Volker Blum, Ralf Gehrke, Felix Hanke, Paula Havu,
          Ville Havu, Xinguo Ren, Karsten Reuter, and Matthias Scheffler,
          'Ab Initio Molecular Simulations with Numeric Atom-Centered Orbitals',
          Computer Physics Communications 180, 2175-2196 (2009)

          For any questions about FHI-aims, please visit the aimsclub website
          with its forums and wiki. Contributions to both the forums and the
          wiki are warmly encouraged - they are for you, and everyone is welcome there.

------------------------------------------------------------



  Date     :  20200404, Time     :  124804.356
  Time zero on CPU 1             :   0.102697000000000E+00  s.
  Internal wall clock time zero  :           355236484.356  s.

  FHI-aims created a unique identifier for this run for later identification
  aims_uuid : 65BCD543-4986-449E-AE19-85700F38290D

  Build configuration of the current instance of FHI-aims
  -------------------------------------------------------
  FHI-aims version      : 200112
  Commit number         : 23daeca3f
  CMake host system     : Linux-3.10.0-693.21.1.el7.x86_64
  CMake version         : 3.13.3
  Fortran compiler      : /sw/installed/impi/2018.4.274-iccifort-2019.1.144-GCC-8.2.0-2.31.1/bin64/mpiifort (Intel) version 19.0.0.20181018
  Fortran compiler flags: -O3 -ip -fp-model precise
  C compiler            : /sw/installed/impi/2018.4.274-iccifort-2019.1.144-GCC-8.2.0-2.31.1/bin64/mpiicc (Intel) version 19.0.0.20181018
  C compiler flags      : -O3 -ip -fp-model precise
  Architecture          :
  Using MPI
  Using Scalapack
  Using C files
  Using LibXC
  Using SPGlib
  Using i-PI
  Using RLSY
  Linking against: /sw/installed/imkl/2019.1.144-iimpi-2019a/mkl/lib/intel64/libmkl_intel_lp64.so
                   /sw/installed/imkl/2019.1.144-iimpi-2019a/mkl/lib/intel64/libmkl_sequential.so
                   /sw/installed/imkl/2019.1.144-iimpi-2019a/mkl/lib/intel64/libmkl_core.so
                   /sw/installed/imkl/2019.1.144-iimpi-2019a/mkl/lib/intel64/libmkl_blacs_intelmpi_lp64.so
                   /sw/installed/imkl/2019.1.144-iimpi-2019a/mkl/lib/intel64/libmkl_scalapack_lp64.so

  Using       24 parallel tasks.
  Task        0 on host taurusi6570.taurus.hrsk.tu-dresden.de reporting.
  Task        1 on host taurusi6570.taurus.hrsk.tu-dresden.de reporting.
  Task        2 on host taurusi6570.taurus.hrsk.tu-dresden.de reporting.
  Task        3 on host taurusi6570.taurus.hrsk.tu-dresden.de reporting.
  Task        4 on host taurusi6570.taurus.hrsk.tu-dresden.de reporting.
  Task        5 on host taurusi6570.taurus.hrsk.tu-dresden.de reporting.
  Task        6 on host taurusi6570.taurus.hrsk.tu-dresden.de reporting.
  Task        7 on host taurusi6570.taurus.hrsk.tu-dresden.de reporting.
  Task        8 on host taurusi6570.taurus.hrsk.tu-dresden.de reporting.
  Task        9 on host taurusi6570.taurus.hrsk.tu-dresden.de reporting.
  Task       10 on host taurusi6570.taurus.hrsk.tu-dresden.de reporting.
  Task       11 on host taurusi6570.taurus.hrsk.tu-dresden.de reporting.
  Task       12 on host taurusi6570.taurus.hrsk.tu-dresden.de reporting.
  Task       13 on host taurusi6570.taurus.hrsk.tu-dresden.de reporting.
  Task       14 on host taurusi6570.taurus.hrsk.tu-dresden.de reporting.
  Task       15 on host taurusi6570.taurus.hrsk.tu-dresden.de reporting.
  Task       16 on host taurusi6570.taurus.hrsk.tu-dresden.de reporting.
  Task       17 on host taurusi6570.taurus.hrsk.tu-dresden.de reporting.
  Task       18 on host taurusi6570.taurus.hrsk.tu-dresden.de reporting.
  Task       19 on host taurusi6570.taurus.hrsk.tu-dresden.de reporting.
  Task       20 on host taurusi6570.taurus.hrsk.tu-dresden.de reporting.
  Task       21 on host taurusi6570.taurus.hrsk.tu-dresden.de reporting.
  Task       22 on host taurusi6570.taurus.hrsk.tu-dresden.de reporting.
  Task       23 on host taurusi6570.taurus.hrsk.tu-dresden.de reporting.

  Performing system and environment tests:
  | Environment variable OMP_NUM_THREADS correctly set to 1.
  | Maximum stacksize for task 0: unlimited
  | Maximum stacksize for task 1: unlimited
  | Maximum stacksize for task 2: unlimited
  | Maximum stacksize for task 3: unlimited
  | Maximum stacksize for task 4: unlimited
  | Maximum stacksize for task 5: unlimited
  | Maximum stacksize for task 6: unlimited
  | Maximum stacksize for task 7: unlimited
  | Maximum stacksize for task 8: unlimited
  | Maximum stacksize for task 9: unlimited
  | Maximum stacksize for task 10: unlimited
  | Maximum stacksize for task 11: unlimited
  | Maximum stacksize for task 12: unlimited
  | Maximum stacksize for task 13: unlimited
  | Maximum stacksize for task 14: unlimited
  | Maximum stacksize for task 15: unlimited
  | Maximum stacksize for task 16: unlimited
  | Maximum stacksize for task 17: unlimited
  | Maximum stacksize for task 18: unlimited
  | Maximum stacksize for task 19: unlimited
  | Maximum stacksize for task 20: unlimited
  | Maximum stacksize for task 21: unlimited
  | Maximum stacksize for task 22: unlimited
  | Maximum stacksize for task 23: unlimited
  | Current stacksize for task 0: unlimited
  | Current stacksize for task 1: unlimited
  | Current stacksize for task 2: unlimited
  | Current stacksize for task 3: unlimited
  | Current stacksize for task 4: unlimited
  | Current stacksize for task 5: unlimited
  | Current stacksize for task 6: unlimited
  | Current stacksize for task 7: unlimited
  | Current stacksize for task 8: unlimited
  | Current stacksize for task 9: unlimited
  | Current stacksize for task 10: unlimited
  | Current stacksize for task 11: unlimited
  | Current stacksize for task 12: unlimited
  | Current stacksize for task 13: unlimited
  | Current stacksize for task 14: unlimited
  | Current stacksize for task 15: unlimited
  | Current stacksize for task 16: unlimited
  | Current stacksize for task 17: unlimited
  | Current stacksize for task 18: unlimited
  | Current stacksize for task 19: unlimited
  | Current stacksize for task 20: unlimited
  | Current stacksize for task 21: unlimited
  | Current stacksize for task 22: unlimited
  | Current stacksize for task 23: unlimited
  | Checking for scalapack...
  | Testing pdtran()...
  | All pdtran() tests passed.

  Obtaining array dimensions for all initial allocations:
  
  -----------------------------------------------------------------------
  Parsing control.in (first pass over file, find array dimensions only).
  The contents of control.in will be repeated verbatim below
  unless switched off by setting 'verbatim_writeout .false.' .
  in the first line of control.in .
  -----------------------------------------------------------------------
  
  #===============================================================================
  # FHI-aims file: ./control.in
  # Created using the Atomic Simulation Environment (ASE)
  # Sat Apr  4 12:47:09 2020
  #===============================================================================
  xc                                 pbe
  # include_spin_orbit
  # vdw_correction_hirshfeld
  many_body_dispersion_nl 	 beta=0.81
  spin                               none
  k_grid 	 	 27 27 13
  relativistic                       atomic_zora scalar
  energy_tolerance 5e-3
  harmonic_length_scale  0.015
  ### SCF settings
  adjust_scf 	 always 	 3
  # frozen_core_scf 	 .true.
  # charge_mix_param  0.05
  # occupation_type 	 gaussian 	 0.01
  # sc_accuracy_eev   1E-3 	 	 # sum of eigenvalues convergence
  # sc_accuracy_etot  1E-6 	 	 # total energy convergence
  # sc_accuracy_rho   1E-3 	 	 # electron density convergence
  # elsi_restart 	 read_and_write 	 1000
  ### geometry optimisation section
  relax_geometry 	 bfgs 	 1E-2
  relax_unit_cell 	 full
  #===============================================================================
  
  ################################################################################
  #
  #  FHI-aims code project
  # Volker Blum, Fritz Haber Institute Berlin, 2009
  #
  #  Suggested "tight" defaults for W atom (to be pasted into control.in file)
  #
  ################################################################################
    species          W
  #     global species definitions
      nucleus        74
      mass           183.84
  #
      l_hartree      6
  #
      cut_pot        4.0  2.0  1.0
      basis_dep_cutoff    1e-4
  #
      radial_base    71  7.0
      radial_multiplier  2
      angular_grids specified
        division   0.2901   50
        division   0.6986  110
        division   1.0528  194
        division   1.2659  302
        division   1.5223  434
  #      division   1.8111  590
  #      division   2.0105  770
  #      division   2.0413  974
  #      division   2.8804 1202
  #      outer_grid  974
        outer_grid  434
  ################################################################################
  #
  #  Definition of "minimal" basis
  #
  ################################################################################
  #     valence basis states
      valence      6  s   2.
      valence      5  p   6.
      valence      5  d   4.
      valence      4  f  14.
  #     ion occupancy
      ion_occ      6  s   1.
      ion_occ      5  p   6.
      ion_occ      5  d   3.
      ion_occ      4  f  14.
  ################################################################################
  #
  #  Suggested additional basis functions. For production calculations,
  #  uncomment them one after another (the most important basis functions are
  #  listed first).
  #
  #  Constructed for dimers: 1.775, 1.99, 2.50, 3.25, 4.50 AA
  #
  ################################################################################
  #
  #  "First tier" - improvements: -603.77 meV to -28.99 meV
       hydro 4 f 7.8
       hydro 4 d 5.8
       ionic 6 p auto
       hydro 5 g 12.4
       ionic 6 s auto
  #  "Second tier" - improvements: -28.30 meV to -1.31 meV
  #     hydro 6 h 16.8
  #     ionic 5 d auto
  #     hydro 4 f 8.6
  #     hydro 5 g 16.8
  #     hydro 5 d 8.4
  #     hydro 3 p 3.3
  #     hydro 1 s 0.55
  #  "Third tier" - max. impr. -1.79 meV, min. impr. -0.26 meV
  #     hydro 5 f 10.8
  #     hydro 5 g 34.4
  #     hydro 6 h 20.8
  #     hydro 5 g 12.8
  #     hydro 2 p 1.6
  #     hydro 4 s 4.7
  #     hydro 6 d 18.4
  #  "Fourth tier" -0.46 max. impr. - meV, min. impr. -0.09 meV
  #     hydro 6 h 21.6
  #     hydro 5 f 22.4
  #     hydro 4 f 4
  #     hydro 5 p 9.6
  #     hydro 6 d 17.2
  #     hydro 3 p 5.2
  #     hydro 5 g 4.7
  #     hydro 6 s 7.6
  ################################################################################
  #
  #  FHI-aims code project
  # Volker Blum, Fritz Haber Institute Berlin, 2009
  #
  #  Suggested "tight" defaults for Se atom (to be pasted into control.in file)
  #
  ################################################################################
    species        Se
  #     global species definitions
      nucleus             34
      mass                78.96
  #
      l_hartree           6
  #
      cut_pot             4.0          2.0  1.0
      basis_dep_cutoff    1e-4
  #
      radial_base         55 7.0
      radial_multiplier   2
      angular_grids       specified
        division   0.0830  110
        division   0.1357  194
        division   0.7377  302
        division   0.8610  434
  #      division   0.9640  590
  #      division   1.0773  770
  #      division   2.5539  974
  #      outer_grid  974
        outer_grid  434
  ################################################################################
  #
  #  Definition of "minimal" basis
  #
  ################################################################################
  #     valence basis states
      valence      4  s   2.
      valence      4  p   4.
      valence      3  d  10.
  #     ion occupancy
      ion_occ      4  s   1.
      ion_occ      4  p   3.
      ion_occ      3  d  10.
  ################################################################################
  #
  #  Suggested additional basis functions. For production calculations,
  #  uncomment them one after another (the most important basis functions are
  #  listed first).
  #
  #  Constructed for dimers: 1.85 A, 2.15 A, 2.50 A, 3.00 A, 4.00 A
  #
  ################################################################################
  #  "First tier" - improvements: -336.21 meV to -36.85 meV
       hydro 3 d 4.3
       hydro 2 p 1.6
       hydro 4 f 7.2
       ionic 4 s auto
  #  "Second tier" - improvements: -14.39 meV to -1.49 meV
  #     hydro 5 g 10.4
  #     hydro 4 p 4.5
  #     hydro 4 d 6.2
  #     hydro 4 f 11.2
  #     hydro 1 s 0.65
  #     hydro 6 h 15.2
  #  "Third tier" - improvements: -0.46 meV and below
  #     hydro 5 g 14.4
  #     ionic 4 d auto
  #     hydro 4 f 22.4
  #     hydro 5 f 7.4
  #     hydro 5 p 8
  #     hydro 5 s 9.4
  #  "Fourth tier" - improvements: -0.12 meV and below
  #     hydro 5 d 11.6
  #     hydro 6 h 18
  #     hydro 4 p 4
  #     hydro 5 f 16
  #     hydro 4 s 3.9
  #
  #
  
  -----------------------------------------------------------------------
  Completed first pass over input file control.in .
  -----------------------------------------------------------------------
  
  
  -----------------------------------------------------------------------
  Parsing geometry.in (first pass over file, find array dimensions only).
  The contents of geometry.in will be repeated verbatim below
  unless switched off by setting 'verbatim_writeout .false.' .
  in the first line of geometry.in .
  -----------------------------------------------------------------------
  
  #=======================================================
  # FHI-aims file: geometry.in
  # Created using the Atomic Simulation Environment (ASE)
  # Sat Apr  4 12:47:09 2020
  #=======================================================
  lattice_vector 3.2799999999999998 0.0000000000000000 0.0000000000000000
  lattice_vector -1.6399999999999999 2.8405633199999998 0.0000000000000000
  lattice_vector 0.0000000000000000 0.0000000000000000 13.4499999999999993
  atom_frac 0.3333333333333334 0.6666666666666667 0.2500000000000000 W
  atom_frac 0.6666666666666666 0.3333333333333334 0.7500000000000001 W
  atom_frac 0.3333333333333334 0.6666666666666667 0.8785000000000001 Se
  atom_frac 0.6666666666666666 0.3333333333333334 0.3785000000000000 Se
  atom_frac 0.6666666666666666 0.3333333333333334 0.1215000000000000 Se
  atom_frac 0.3333333333333334 0.6666666666666667 0.6215000000000001 Se
  symmetry_n_params 20 2 18
  symmetry_params a1 c3 x0 x1 x2 x3 x4 x5 x6 x7 x8 x9 x10 x11 x12 x13 x14 x15 x16 x17
  symmetry_lv a1 , 0 , 0
  symmetry_lv -a1/2 , sqrt(3.0)*a1/2 , 0
  symmetry_lv 0 , 0 , c3
  symmetry_frac x0 , x1 , x2
  symmetry_frac x3 , x4 , x5
  symmetry_frac x6 , x7 , x8
  symmetry_frac x9 , x10 , x11
  symmetry_frac x12 , x13 , x14
  symmetry_frac x15 , x16 , x17
  
  -----------------------------------------------------------------------
  Completed first pass over input file geometry.in .
  -----------------------------------------------------------------------
  

  Basic array size parameters:
  | Number of species                 :        2
  | Number of atoms                   :        6
  | Number of lattice vectors         :        3
  | Max. basis fn. angular momentum   :        4
  | Max. atomic/ionic basis occupied n:        6
  | Max. number of basis fn. types    :        3
  | Max. radial fns per species/type  :       14
  | Max. logarithmic grid size        :     1483
  | Max. radial integration grid size :      143
  | Max. angular integration grid size:      434
  | Max. angular grid division number :        8
  | Radial grid for Hartree potential :     1483
  | Number of spin channels           :        1

------------------------------------------------------------
          Reading file control.in.
------------------------------------------------------------
  XC: Using PBE gradient-corrected functionals.
  Using libMBD for calculating MBD and TS energies
  Spin treatment: No spin polarisation.
  Found k-point grid:        27        27        13
  Scalar relativistic treatment of kinetic energy: on-site free-atom approximation to ZORA.
  Max energy increase before discarding BFGS move:   0.500000E-02 eV
  Assuming qualitatively harmonic for steps shorter than   0.150000E-01 A.
  S.C.F. convergence parameters will be adjusted in iteration number     3 of each new s.c.f. cycle.
  Geometry relaxation: Modified BFGS - TRM (trust radius method) for lattice optimization.
  Convergence accuracy for geometry relaxation: Maximum force <   0.100000E-01 eV/A.
 
  Reading configuration options for species W                   .
  | Found nuclear charge :  74.0000
  | Found atomic mass :    183.840000000000      amu
  | Found l_max for Hartree potential  :   6
  | Found cutoff potl. onset [A], width [A], scale factor :    4.00000    2.00000    1.00000
  | Threshold for basis-dependent cutoff potential is   0.100000E-03
  | Found data for basic radial integration grid :    71 points, outermost radius =    7.000 A
  | Found multiplier for basic radial grid :   2
  | Found angular grid specification: user-specified.
  | Specified grid contains     6 separate shells.
  | Check grid settings after all constraints further below.
  | Found free-atom valence shell :  6 s   2.000
  | Found free-atom valence shell :  5 p   6.000
  | Found free-atom valence shell :  5 d   4.000
  | Found free-atom valence shell :  4 f  14.000
  | Found free-ion valence shell :  6 s   1.000
  | Found free-ion valence shell :  5 p   6.000
  | Found free-ion valence shell :  5 d   3.000
  | Found free-ion valence shell :  4 f  14.000
  | Found hydrogenic basis function :  4 f   7.800
  | Found hydrogenic basis function :  4 d   5.800
  | Found ionic basis function :  6 p , default cutoff radius.
  | Found hydrogenic basis function :  5 g  12.400
  | Found ionic basis function :  6 s , default cutoff radius.
  Species W                   : Missing cutoff potential type.
  Defaulting to exp(1/x)/(1-x)^2 type cutoff potential.
  Species W : No 'logarithmic' tag. Using default grid for free atom:
  | Default logarithmic grid data [bohr] : 0.1000E-03 0.1000E+03 0.1012E+01
  | Will include ionic basis functions of  2.0-fold positive W                    ion.
  Species W : On-site basis accuracy parameter (for Gram-Schmidt orthonormalisation) not specified.
  Using default value basis_acc =  0.1000000E-03.
  Species W                   : Using default innermost maximum threshold i_radial=  2 for radial functions.
  Species W                   : Default cutoff onset for free atom density etc. : 0.40000000E+01 AA.
  Species W                   : Basic radial grid will be enhanced according to radial_multiplier =   2, to contain   143 grid points.
 
  Reading configuration options for species Se                  .
  | Found nuclear charge :  34.0000
  | Found atomic mass :    78.9600000000000      amu
  | Found l_max for Hartree potential  :   6
  | Found cutoff potl. onset [A], width [A], scale factor :    4.00000    2.00000    1.00000
  | Threshold for basis-dependent cutoff potential is   0.100000E-03
  | Found data for basic radial integration grid :    55 points, outermost radius =    7.000 A
  | Found multiplier for basic radial grid :   2
  | Found angular grid specification: user-specified.
  | Specified grid contains     5 separate shells.
  | Check grid settings after all constraints further below.
  | Found free-atom valence shell :  4 s   2.000
  | Found free-atom valence shell :  4 p   4.000
  | Found free-atom valence shell :  3 d  10.000
  | Found free-ion valence shell :  4 s   1.000
  | Found free-ion valence shell :  4 p   3.000
  | Found free-ion valence shell :  3 d  10.000
  | Found hydrogenic basis function :  3 d   4.300
  | Found hydrogenic basis function :  2 p   1.600
  | Found hydrogenic basis function :  4 f   7.200
  | Found ionic basis function :  4 s , default cutoff radius.
  Species Se                  : Missing cutoff potential type.
  Defaulting to exp(1/x)/(1-x)^2 type cutoff potential.
  Species Se: No 'logarithmic' tag. Using default grid for free atom:
  | Default logarithmic grid data [bohr] : 0.1000E-03 0.1000E+03 0.1012E+01
  | Will include ionic basis functions of  2.0-fold positive Se                   ion.
  Species Se: On-site basis accuracy parameter (for Gram-Schmidt orthonormalisation) not specified.
  Using default value basis_acc =  0.1000000E-03.
  Species Se                  : Using default innermost maximum threshold i_radial=  2 for radial functions.
  Species Se                  : Default cutoff onset for free atom density etc. : 0.40000000E+01 AA.
  Species Se                  : Basic radial grid will be enhanced according to radial_multiplier =   2, to contain   111 grid points.
 
  Finished reading input file 'control.in'. Consistency checks are next.
 
  MPI_IN_PLACE appears to work with this MPI implementation.
  | Keeping use_mpi_in_place .true. (see manual).
  Target number of points in a grid batch is not set. Defaulting to  100
  Method for grid partitioning is not set. Defaulting to parallel hash+maxmin partitioning.
  Batch size limit is not set. Defaulting to    200
  By default, will store active basis functions for each batch.
  If in need of memory, prune_basis_once .false. can be used to disable this option.
  communication_type for Hartree potential was not specified.
  Defaulting to calc_hartree .
  Defaulting to Pulay charge density mixer.
  Pulay mixer: Number of relevant iterations not set.
  Defaulting to    8 iterations.
  Pulay mixer: Number of initial linear mixing iterations not set.
  Defaulting to    0 iterations.
  Work space size for distributed Hartree potential not set.
  Defaulting to   0.200000E+03 MB.
  Mixing parameter for charge density mixing has not been set.
  Using default: charge_mix_param =     0.0500.
  The mixing parameter will be adjusted in iteration number     3 of each s.c.f. cycle (i.e., each geometry step).
  Algorithm-dependent basis array size parameters:
  | n_max_pulay                         :        8
  Maximum number of self-consistency iterations not provided.
  Presetting  1000 iterations.
  Presetting      1001 iterations before the initial mixing cycle
  is restarted anyway using the sc_init_iter criterion / keyword.
  Presetting a factor      1.000 between actual scf density residual
  and density convergence criterion sc_accuracy_rho below which sc_init_iter
  takes no effect.
 * No s.c.f. convergence criteria (sc_accuracy_*) were provided in control.in.
 * The run will proceed with a reasonable default guess, but please check whether.
 * the s.c.f. cycles seem to take too much or too little time.
  No maximum number of relaxation steps, defaulting to     1000
  Default initial Hessian is Lindh matrix (thres = 15.00) plus  0.200000E+01 eV/A^2 times unity.
  Maximum energy tolerance by which TRM/BFGS trajectory may increase over multiple steps:   0.300000E-02
  No trust radius initializer. Defaulting to   0.200000E+00 A.
  Unit cell relaxation: Unit cell will be relaxed fully.
  Unit cell relaxation: Analytical stress will be used.
  Analytical stress will be computed.
  Analytical stress calculation: Only the upper triangle is calculated.
                                 Final output is symmetrized.
  Analytical stress calculation: scf convergence accuracy of stress not set.
                                 Analytical stress self-consistency will not be checked explicitly.
                                 Be sure to set other criteria like sc_accuracy_rho tight enough.
 * Notice: The s.c.f. convergence criterion sc_accuracy_rho was not provided.
 * We used to stop in this case, and ask the user to provide reasonable
 * scf convergence criteria. However, this led some users to employ criteria
 * that led to extremely long run times, e.g., for simple relaxation.
 * We now preset a default value for sc_accuracy_rho if it is not set.
 * You may still wish to check if this setting is too tight or too loose for your needs.
 * Based on n_atoms, FHI-aims chose sc_accuracy_rho =  0.100000E-05 .
  Force calculation: scf convergence accuracy of forces not set.
  Defaulting to 'sc_accuracy_forces not_checked'.
  Handling of forces: Unphysical translation and rotation will be removed from forces.
  No accuracy limit for integral partition fn. given. Defaulting to  0.1000E-14.
  No threshold value for u(r) in integrations given. Defaulting to  0.1000E-05.
  No occupation type (smearing scheme) given. Defaulting to Gaussian broadening, width =  0.1000E-01 eV.
  The width will be adjusted in iteration number     3 of each s.c.f. cycle (i.e., each geometry step).
  S.C.F. convergence parameters will be adjusted in iteration number     3 of the first full s.c.f. cycle only.
  No accuracy for occupation numbers given. Defaulting to  0.1000E-12.
  No threshold value for occupation numbers given. Defaulting to  0.0000E+00.
  No accuracy for fermi level given. Defaulting to  0.1000E-19.
  Maximum # of iterations to find E_F not set. Defaulting to  200.
  Preferred method for the eigenvalue solver ('KS_method') not specified in 'control.in'.
  Defaulting to serial version, LAPACK (via ELSI), since more k-points than CPUs available.
  Will not use alltoall communication since running on < 1024 CPUs.
  Threshold for basis singularities not set.
  Default threshold for basis singularities:  0.1000E-04
  partition_type (choice of integration weights) for integrals was not specified.
  | Using a version of the partition function of Stratmann and coworkers ('stratmann_sparse').
  | At each grid point, the set of atoms used to build the partition table is smoothly restricted to
  | only those atoms whose free-atom density would be non-zero at that grid point.
  Partitioning for Hartree potential was not defined. Using partition_type for integrals.
  | Adjusted default value of keyword multip_moments_threshold to:       0.10000000E-11
  | This value may affect high angular momentum components of the Hartree potential in periodic systems.
  Angular momentum expansion for Kerker preconditioner not set explicitly.
  | Using default value of   0
  No explicit requirement for turning off preconditioner.
  | By default, it will be turned off when the charge convergence reaches
  | sc_accuracy_rho  =   0.100000E-05
  No special mixing parameter while Kerker preconditioner is on.
  Using default: charge_mix_param =     0.0500.
  No q(lm)/r^(l+1) cutoff set for long-range Hartree potential.
  | Using default value of  0.100000E-09 .
  | Verify using the multipole_threshold keyword.
  Defaulting to new monopole extrapolation.
  Density update method: automatic selection selected.
  Using density matrix based charge density update.
  Using density matrix based charge density update.
  Using packed matrix style: index .
  Geometry relaxation: A file "geometry.in.next_step" is written out by default after each step.
  | This file contains the geometry of the current relaxation step as well as
  | the current Hessian matrix needed to restart the relaxation algorithm.
  | If you do not want part or all of this information, use the keywords
  | "write_restart_geometry" or "hessian_to_restart_geometry" to switch the output off.
  Defaulting to use time-reversal symmetry for k-point grid.
  Charge integration errors on the 3D integration grid will be compensated
  by explicit normalization and distribution of residual charges.
  Use the "compensate_multipole_errors" flag to change this behaviour.
------------------------------------------------------------


------------------------------------------------------------
          Reading geometry description geometry.in.
------------------------------------------------------------
  Input structure read successfully.
  The structure contains        6 atoms,  and a total of        284.000 electrons.

  Input geometry:
  | Unit cell:
  |        3.28000000        0.00000000        0.00000000
  |       -1.64000000        2.84056332        0.00000000
  |        0.00000000        0.00000000       13.45000000
  | Atomic structure:
  |       Atom                x [A]            y [A]            z [A]
  |    1: Species W             0.00000000        1.89370888        3.36250000
  |    2: Species W             1.64000000        0.94685444       10.08750000
  |    3: Species Se            0.00000000        1.89370888       11.81582500
  |    4: Species Se            1.64000000        0.94685444        5.09082500
  |    5: Species Se            1.64000000        0.94685444        1.63417500
  |    6: Species Se            0.00000000        1.89370888        8.35917500

  Lattice parameters for 3D lattice (in Angstroms) :     3.280000    3.280000   13.450000
  Angle(s) between unit vectors (in degrees)       :    90.000000   90.000000  120.000000

  | The smallest distance between any two atoms is         2.56383319 AA.
  | The first atom of this pair is atom number                      2 .
  | The second atom of this pair is atom number                     3 .
  | Wigner-Seitz cell of the first atom image           1     0     0 .
  | (The Wigner-Seitz cell of the second atom is 0 0 0  by definition.)

  Symmetry information by spglib:
  | Precision set to  0.1E-04
  | Number of Operations  : 24
  | Space group           : 194
  | International         : P6_3/mmc
  | Schoenflies           : D6h^4

  Quantities derived from the lattice vectors:
  | Reciprocal lattice vector 1:  1.915605  1.105975  0.000000
  | Reciprocal lattice vector 2: -0.000000  2.211950  0.000000
  | Reciprocal lattice vector 3:  0.000000  0.000000  0.467151
  | Unit cell volume                               :   0.125314E+03  A^3

  Range separation radius for Ewald summation (hartree_convergence_parameter):      3.94952826 bohr.

  Fractional coordinates:
                         L1                L2                L3
       atom_frac         0.33333333        0.66666667        0.25000000  W
       atom_frac         0.66666667        0.33333333        0.75000000  W
       atom_frac         0.33333333        0.66666667        0.87850000  Se
       atom_frac         0.66666667        0.33333333        0.37850000  Se
       atom_frac         0.66666667        0.33333333        0.12150000  Se
       atom_frac         0.33333333        0.66666667        0.62150000  Se

  Number of empty states per atom not set in control.in - providing a guess from actual geometry.
  | Total number of empty states used during s.c.f. cycle:       40
  If you use a very high smearing, use empty_states (per atom!) in control.in to increase this value.

  Structure-dependent array size parameters: 
  | Maximum number of distinct radial functions  :       31
  | Maximum number of basis functions            :      266
  | Number of Kohn-Sham states (occupied + empty):      182
------------------------------------------------------------

------------------------------------------------------------
          Preparing all fixed parts of the calculation.
------------------------------------------------------------
  Determining machine precision:
    2.225073858507201E-308
  Setting up grids for atomic and cluster calculations.

  Creating wave function, potential, and density for free atoms.

  Species: W

  List of occupied orbitals and eigenvalues:
    n    l              occ      energy [Ha]    energy [eV]
    1    0           2.0000     -2764.899999    -75236.7570
    2    0           2.0000      -447.822848    -12185.8797
    3    0           2.0000      -101.923634     -2773.4832
    4    0           2.0000       -20.945301      -569.9506
    5    0           2.0000        -2.899582       -78.9016
    6    0           2.0000        -0.207066        -5.6345
    2    1           6.0000      -391.021390    -10640.2334
    3    1           6.0000       -85.417793     -2324.3364
    4    1           6.0000       -15.562838      -423.4864
    5    1           6.0000        -1.582233       -43.0547
    3    2          10.0000       -66.517936     -1810.0451
    4    2          10.0000        -8.758436      -238.3292
    5    2           4.0000        -0.161873        -4.4048
    4    3          14.0000        -1.221948       -33.2509


  Species: Se

  List of occupied orbitals and eigenvalues:
    n    l              occ      energy [Ha]    energy [eV]
    1    0           2.0000      -466.337810    -12689.6975
    2    0           2.0000       -59.202598     -1610.9847
    3    0           2.0000        -7.847116      -213.5309
    4    0           2.0000        -0.634372       -17.2621
    2    1           6.0000       -52.061107     -1416.6548
    3    1           6.0000        -5.620941      -152.9536
    4    1           4.0000        -0.238469        -6.4891
    3    2          10.0000        -1.951949       -53.1152

  Creating fixed part of basis set: Ionic, confined, hydrogenic.
 
  W                    ion:

  List of free ionic orbitals and eigenvalues:
    n    l      energy [Ha]    energy [eV]
    1    0     -2765.664016    -75257.5469
    2    0      -448.543169    -12205.4806
    3    0      -102.635476     -2792.8534
    4    0       -21.655379      -589.2728
    5    0        -3.604872       -98.0936
    6    0        -0.752243       -20.4696
    2    1      -391.740682    -10659.8063
    3    1       -86.129333     -2343.6984
    4    1       -16.272893      -442.8080
    5    1        -2.280103       -62.0448
    3    2       -67.229405     -1829.4052
    4    2        -9.468448      -257.6496
    5    2        -0.806537       -21.9470
    4    3        -1.931058       -52.5468


  List of ionic basis orbitals and eigenvalues:
    n    l      energy [Ha]    energy [eV]    outer radius [A]
    6    1        -0.508246       -13.8301       5.434360
    6    0        -0.752227       -20.4691       5.368330

 
  W                    hydrogenic:
 
  List of hydrogenic basis orbitals: 
    n    l      effective z      eigenvalue [eV]  inner max. [A]     outer max. [A]     outer radius [A]   
    4    3         7.800000       -51.7355           1.082252           1.082252           4.692859
    4    2         5.800000       -28.5979           0.616741           1.946131           5.434360
    5    4        12.400000       -83.6803           1.069102           1.069102           4.307971
 
 
  Se                   ion:

  List of free ionic orbitals and eigenvalues:
    n    l      energy [Ha]    energy [eV]
    1    0      -467.261007    -12714.8189
    2    0       -60.104893     -1635.5374
    3    0        -8.743714      -237.9286
    4    0        -1.414053       -38.4783
    2    1       -52.964156     -1441.2280
    3    1        -6.516916      -177.3343
    4    1        -0.961869       -26.1738
    3    2        -2.844511       -77.4031


  List of ionic basis orbitals and eigenvalues:
    n    l      energy [Ha]    energy [eV]    outer radius [A]
    4    0        -1.414046       -38.4782       4.083166

 
  Se                   hydrogenic:
 
  List of hydrogenic basis orbitals: 
    n    l      effective z      eigenvalue [eV]  inner max. [A]     outer max. [A]     outer radius [A]   
    3    2         4.300000       -27.9518           1.103845           1.103845           5.278265
    2    1         1.600000        -8.6828           1.326010           1.326010           5.475439
    4    3         7.200000       -44.0822           1.173422           1.173422           4.965294
 

  Adding cutoff potential to free-atom effective potential.
  Creating atomic-like basis functions for current effective potential.

  Species W                   :

  List of atomic basis orbitals and eigenvalues:
    n    l      energy [Ha]    energy [eV]    outer radius [A]
    1    0     -2764.899999    -75236.7570       0.130566
    2    0      -447.822848    -12185.8797       0.342973
    3    0      -101.923634     -2773.4832       0.722975
    4    0       -20.945301      -569.9506       1.542753
    5    0        -2.899582       -78.9016       3.859132
    6    0        -0.207066        -5.6345       5.434360
    2    1      -391.021390    -10640.2334       0.355785
    3    1       -85.417793     -2324.3364       0.768545
    4    1       -15.562838      -423.4864       1.722184
    5    1        -1.582233       -43.0547       4.750581
    3    2       -66.517936     -1810.0451       0.827037
    4    2        -8.758436      -238.3292       2.172477
    5    2        -0.161873        -4.4048       5.368330
    4    3        -1.221948       -33.2509       4.579510


  Species Se                  :

  List of atomic basis orbitals and eigenvalues:
    n    l      energy [Ha]    energy [eV]    outer radius [A]
    1    0      -466.337810    -12689.6975       0.309561
    2    0       -59.202598     -1610.9847       0.885812
    3    0        -7.847116      -213.5309       2.355489
    4    0        -0.634372       -17.2621       5.214131
    2    1       -52.061107     -1416.6548       0.907737
    3    1        -5.620941      -152.9536       2.694529
    4    1        -0.238469        -6.4891       5.408909
    3    2        -1.951949       -53.1152       4.083166

  Assembling full basis from fixed parts.
  | Species W :   atomic orbital   1 s accepted.
  | Species W :   atomic orbital   2 s accepted.
  | Species W :   atomic orbital   3 s accepted.
  | Species W :   atomic orbital   4 s accepted.
  | Species W :   atomic orbital   5 s accepted.
  | Species W :    ionic orbital   6 s accepted.
  | Species W :   atomic orbital   6 s accepted.
  | Species W :   atomic orbital   2 p accepted.
  | Species W :   atomic orbital   3 p accepted.
  | Species W :   atomic orbital   4 p accepted.
  | Species W :   atomic orbital   5 p accepted.
  | Species W :    ionic orbital   6 p accepted.
  | Species W :   atomic orbital   3 d accepted.
  | Species W :   atomic orbital   4 d accepted.
  | Species W :   atomic orbital   5 d accepted.
  | Species W :    hydro orbital   4 d accepted.
  | Species W :   atomic orbital   4 f accepted.
  | Species W :    hydro orbital   4 f accepted.
  | Species W :    hydro orbital   5 g accepted.
  | Species Se :   atomic orbital   1 s accepted.
  | Species Se :   atomic orbital   2 s accepted.
  | Species Se :   atomic orbital   3 s accepted.
  | Species Se :    ionic orbital   4 s accepted.
  | Species Se :   atomic orbital   4 s accepted.
  | Species Se :   atomic orbital   2 p accepted.
  | Species Se :   atomic orbital   3 p accepted.
  | Species Se :   atomic orbital   4 p accepted.
  | Species Se :    hydro orbital   2 p accepted.
  | Species Se :   atomic orbital   3 d accepted.
  | Species Se :    hydro orbital   3 d accepted.
  | Species Se :    hydro orbital   4 f accepted.
 
  Basis size parameters after reduction:
  | Total number of radial functions:       31
  | Total number of basis functions :      266
 
  Per-task memory consumption for arrays in subroutine allocate_ext:
  |          11.777104MB.
  Testing on-site integration grid accuracy.
  |  Species  Function  <phi|h_atom|phi> (log., in eV)  <phi|h_atom|phi> (rad., in eV)
           1        1             -75236.7569897398             -75236.7398021816
           1        2             -12185.8796968880             -12185.8793671389
           1        3              -2773.4831911435              -2773.4831624928
           1        4               -569.9506420417               -569.9506363235
           1        5                -78.9016401752                -78.9016385968
           1        6                 -5.1691854984                 -5.1691848358
           1        7                  4.5636857939                  4.5638143912
           1        8             -10640.2333851158             -10640.2333803363
           1        9              -2324.3364165327              -2324.3364072919
           1       10               -423.4863614587               -423.4863574859
           1       11                -43.0547390741                -43.0547381500
           1       12                 -0.2794590886                 -0.2794514857
           1       13              -1810.0451240061              -1810.0451202456
           1       14               -238.3291788477               -238.3291766726
           1       15                 -4.4054312547                 -4.4054293963
           1       16                  8.2928303329                  8.2928369211
           1       17                -33.2508975442                -33.2508971531
           1       18                 21.3563540731                 21.3563541107
           1       19                 49.8060668072                 49.8060668107
           2       20             -12689.6974611609             -12689.6967666984
           2       21              -1610.9846578580              -1610.9846472470
           2       22               -213.5308789869               -213.5308777267
           2       23                -17.0464428502                -17.0464426496
           2       24                  6.7356859379                  6.7356842047
           2       25              -1416.6548010133              -1416.6548002108
           2       26               -152.9535734377               -152.9535727493
           2       27                 -6.4896265677                 -6.4896303794
           2       28                  5.2703037283                  5.2701679583
           2       29                -53.1152220964                -53.1152219035
           2       30                  7.6186674138                  7.6186665630
           2       31                 23.1072799052                 23.1072803137

  Preparing densities etc. for the partition functions (integrals / Hartree potential).

  Preparations completed.
  max(cpu_time)          :      0.721 s.
  Wall clock time (cpu1) :      0.753 s.
------------------------------------------------------------

------------------------------------------------------------
          Begin self-consistency loop: Initialization.

          Date     :  20200404, Time     :  124805.706
------------------------------------------------------------

  Initializing index lists of integration centers etc. from given atomic structure:
  Mapping all atomic coordinates to central unit cell.

  Initializing the k-points
  Using symmetry for reducing the k-points
  | k-points reduced from:     9477 to     4739
  | Number of k-points                             :      4739
  The eigenvectors in the calculations are COMPLEX.
  | K-points in task   0:       197
  | K-points in task   1:       198
  | K-points in task   2:       198
  | K-points in task   3:       198
  | K-points in task   4:       198
  | K-points in task   5:       198
  | K-points in task   6:       198
  | K-points in task   7:       198
  | K-points in task   8:       198
  | K-points in task   9:       198
  | K-points in task  10:       198
  | K-points in task  11:       198
  | K-points in task  12:       197
  | K-points in task  13:       197
  | K-points in task  14:       197
  | K-points in task  15:       197
  | K-points in task  16:       197
  | K-points in task  17:       197
  | K-points in task  18:       197
  | K-points in task  19:       197
  | K-points in task  20:       197
  | K-points in task  21:       197
  | K-points in task  22:       197
  | K-points in task  23:       197
  | Number of basis functions in the Hamiltonian integrals :      5624
  | Number of basis functions in a single unit cell        :       266
  | Number of centers in hartree potential         :      1304
  | Number of centers in hartree multipole         :       760
  | Number of centers in electron density summation:       538
  | Number of centers in basis integrals           :       600
  | Number of centers in integrals                 :       228
  | Number of centers in hamiltonian               :       538
  | Consuming      11995 KiB for k_phase.
  | Number of super-cells (origin) [n_cells]                     :        1125
  | Number of super-cells (after PM_index) [n_cells]             :         162
  | Number of super-cells in hamiltonian [n_cells_in_hamiltonian]:         162
  | Size of matrix packed + index [n_hamiltonian_matrix_size] :      788523

  Initializing relaxation algorithms.
  | Estimated reciprocal-space cutoff momentum G_max:         2.46208746 bohr^-1 .
  | Reciprocal lattice points for long-range Hartree potential:     228
  Partitioning the integration grid into batches with parallel hashing+maxmin method.
  | Number of batches:     2590
  | Maximal batch size:     114
  | Minimal batch size:      49
  | Average batch size:      76.937
  | Standard deviation of batch sizes:      13.116

  Integration load balanced across    24 MPI tasks.
  Work distribution over tasks is as follows:
  Task     0 has       8308 integration points.
  Task     1 has       8306 integration points.
  Task     2 has       8329 integration points.
  Task     3 has       8309 integration points.
  Task     4 has       8325 integration points.
  Task     5 has       8305 integration points.
  Task     6 has       8312 integration points.
  Task     7 has       8325 integration points.
  Task     8 has       8305 integration points.
  Task     9 has       8293 integration points.
  Task    10 has       8296 integration points.
  Task    11 has       8298 integration points.
  Task    12 has       8286 integration points.
  Task    13 has       8301 integration points.
  Task    14 has       8311 integration points.
  Task    15 has       8308 integration points.
  Task    16 has       8298 integration points.
  Task    17 has       8298 integration points.
  Task    18 has       8301 integration points.
  Task    19 has       8300 integration points.
  Task    20 has       8285 integration points.
  Task    21 has       8260 integration points.
  Task    22 has       8303 integration points.
  Task    23 has       8306 integration points.
  Initializing partition tables, free-atom densities, potentials, etc. across the integration grid (initialize_grid_storage).
  | initialize_grid_storage: Actual outermost partition radius vs. multipole_radius_free
  | (-- VB: in principle, multipole_radius_free should be larger, hence this output)
  | Species        1: Confinement radius =              6.000000000000000 AA, multipole_radius_free =              6.066407844853155 AA.
  | Species        1: outer_partition_radius set to              6.066407844853155 AA .
  | Species        2: Confinement radius =              6.000000000000000 AA, multipole_radius_free =              6.037996416842453 AA.
  | Species        2: outer_partition_radius set to              6.037996416842453 AA .
  | The sparse table of interatomic distances needs       2654.40 kbyte instead of      2880.00 kbyte of memory.
  | Net number of integration points:   199268
  | of which are non-zero points    :   165896
  | Numerical average free-atom electrostatic potential    :    -20.32939762 eV
  Renormalizing the initial density to the exact electron count on the 3D integration grid.
  | Initial density: Formal number of electrons (from input files) :     284.0000000000
  | Integrated number of electrons on 3D grid     :     283.9998429952
  | Charge integration error                      :      -0.0001570048
  | Normalization factor for density and gradient :       1.0000005528
  Renormalizing the free-atom superposition density to the exact electron count on the 3D integration grid.
  | Formal number of electrons (from input files) :     284.0000000000
  | Integrated number of electrons on 3D grid     :     283.9998429952
  | Charge integration error                      :      -0.0001570048
  | Normalization factor for density and gradient :       1.0000005528
  Obtaining max. number of non-zero basis functions in each batch (get_n_compute_maxes).
  | Maximal number of non-zero basis functions:     1107 in task     0
  | Maximal number of non-zero basis functions:     1116 in task     1
  | Maximal number of non-zero basis functions:     1102 in task     2
  | Maximal number of non-zero basis functions:     1121 in task     3
  | Maximal number of non-zero basis functions:     1098 in task     4
  | Maximal number of non-zero basis functions:     1108 in task     5
  | Maximal number of non-zero basis functions:     1106 in task     6
  | Maximal number of non-zero basis functions:     1119 in task     7
  | Maximal number of non-zero basis functions:     1119 in task     8
  | Maximal number of non-zero basis functions:     1107 in task     9
  | Maximal number of non-zero basis functions:     1107 in task    10
  | Maximal number of non-zero basis functions:     1107 in task    11
  | Maximal number of non-zero basis functions:     1078 in task    12
  | Maximal number of non-zero basis functions:     1103 in task    13
  | Maximal number of non-zero basis functions:     1119 in task    14
  | Maximal number of non-zero basis functions:     1122 in task    15
  | Maximal number of non-zero basis functions:     1122 in task    16
  | Maximal number of non-zero basis functions:     1080 in task    17
  | Maximal number of non-zero basis functions:     1113 in task    18
  | Maximal number of non-zero basis functions:     1122 in task    19
  | Maximal number of non-zero basis functions:     1110 in task    20
  | Maximal number of non-zero basis functions:     1107 in task    21
  | Maximal number of non-zero basis functions:     1122 in task    22
  | Maximal number of non-zero basis functions:     1083 in task    23
  Allocating      145.526 MB for KS_eigenvector_complex
  Integrating Hamiltonian matrix: batch-based integration.
  Time summed over all CPUs for integration: real work       43.948 s, elapsed       44.689 s
  Integrating overlap matrix.
  Time summed over all CPUs for integration: real work       33.449 s, elapsed       34.007 s
  Decreasing sparse matrix size:
  | Tolerance:  0.1000E-12
  Hamiltonian matrix
  | Array has   607967 nonzero elements out of   788523 elements
  | Sparsity factor is 0.229
  Overlap matrix
  | Array has   550628 nonzero elements out of   788523 elements
  | Sparsity factor is 0.302
  New size of hamiltonian matrix:      610423

  Updating Kohn-Sham eigenvalues and eigenvectors using ELSI and the (modified) LAPACK eigensolver.
  Singularity check in k-point 24, task 0 (analysis for other k-points/tasks may follow below):
  Overlap matrix is not singular
  | Lowest and highest eigenvalues :  0.1753E-02,  0.8499E+01
  Finished singularity check of overlap matrix
  | Time :     0.037 s
  Starting LAPACK eigensolver
  Finished Cholesky decomposition
  | Time :     0.022 s
  Finished transformation to standard eigenproblem
  | Time :     0.006 s
  Finished solving standard eigenproblem
  | Time :     0.017 s
  Finished back-transformation of eigenvectors
  | Time :     0.002 s

  Obtaining occupation numbers and chemical potential using ELSI.
  | Chemical potential (Fermi level):    -6.05592706 eV
  Writing Kohn-Sham eigenvalues.
  K-point:       1 at    0.000000    0.000000    0.000000 (in units of recip. lattice)

  State    Occupation    Eigenvalue [Ha]    Eigenvalue [eV]
      1       2.00000       -2764.916659       -75237.21033
      2       2.00000       -2764.916659       -75237.21033
      3       2.00000        -466.356657       -12690.21032
      4       2.00000        -466.356657       -12690.21032
      5       2.00000        -466.356657       -12690.21032
      6       2.00000        -466.356657       -12690.21032
      7       2.00000        -447.837840       -12186.28766
      8       2.00000        -447.837840       -12186.28766
      9       2.00000        -391.036154       -10640.63513
     10       2.00000        -391.036154       -10640.63513
     11       2.00000        -391.036153       -10640.63510
     12       2.00000        -391.036153       -10640.63510
     13       2.00000        -391.036152       -10640.63508
     14       2.00000        -391.036152       -10640.63508
     15       2.00000        -101.938724        -2773.89381
     16       2.00000        -101.938724        -2773.89381
     17       2.00000         -85.432850        -2324.74613
     18       2.00000         -85.432850        -2324.74613
     19       2.00000         -85.432837        -2324.74579
     20       2.00000         -85.432837        -2324.74579
     21       2.00000         -85.432837        -2324.74578
     22       2.00000         -85.432837        -2324.74578
     23       2.00000         -66.532933        -1810.45321
     24       2.00000         -66.532933        -1810.45321
     25       2.00000         -66.532931        -1810.45317
     26       2.00000         -66.532931        -1810.45317
     27       2.00000         -66.532931        -1810.45317
     28       2.00000         -66.532931        -1810.45317
     29       2.00000         -66.532923        -1810.45296
     30       2.00000         -66.532923        -1810.45296
     31       2.00000         -66.532923        -1810.45296
     32       2.00000         -66.532923        -1810.45296
     33       2.00000         -59.221975        -1611.51193
     34       2.00000         -59.221975        -1611.51193
     35       2.00000         -59.221975        -1611.51193
     36       2.00000         -59.221975        -1611.51193
     37       2.00000         -52.080474        -1417.18181
     38       2.00000         -52.080474        -1417.18181
     39       2.00000         -52.080474        -1417.18181
     40       2.00000         -52.080474        -1417.18181
     41       2.00000         -52.080415        -1417.18020
     42       2.00000         -52.080415        -1417.18020
     43       2.00000         -52.080415        -1417.18020
     44       2.00000         -52.080415        -1417.18020
     45       2.00000         -52.080415        -1417.18019
     46       2.00000         -52.080415        -1417.18019
     47       2.00000         -52.080415        -1417.18019
     48       2.00000         -52.080415        -1417.18019
     49       2.00000         -20.961648         -570.39545
     50       2.00000         -20.961648         -570.39545
     51       2.00000         -15.579469         -423.93893
     52       2.00000         -15.579469         -423.93893
     53       2.00000         -15.579391         -423.93679
     54       2.00000         -15.579391         -423.93679
     55       2.00000         -15.579390         -423.93678
     56       2.00000         -15.579390         -423.93678
     57       2.00000          -8.775411         -238.79107
     58       2.00000          -8.775411         -238.79107
     59       2.00000          -8.775411         -238.79107
     60       2.00000          -8.775411         -238.79107
     61       2.00000          -8.775375         -238.79010
     62       2.00000          -8.775375         -238.79010
     63       2.00000          -8.775313         -238.78842
     64       2.00000          -8.775313         -238.78842
     65       2.00000          -8.775313         -238.78842
     66       2.00000          -8.775313         -238.78842
     67       2.00000          -7.869133         -214.12999
     68       2.00000          -7.869133         -214.12999
     69       2.00000          -7.869132         -214.12999
     70       2.00000          -7.869132         -214.12999
     71       2.00000          -5.643694         -153.57272
     72       2.00000          -5.643694         -153.57271
     73       2.00000          -5.643693         -153.57271
     74       2.00000          -5.643693         -153.57271
     75       2.00000          -5.642968         -153.55298
     76       2.00000          -5.642968         -153.55298
     77       2.00000          -5.642968         -153.55298
     78       2.00000          -5.642968         -153.55298
     79       2.00000          -5.642968         -153.55298
     80       2.00000          -5.642968         -153.55298
     81       2.00000          -5.642968         -153.55298
     82       2.00000          -5.642968         -153.55297
     83       2.00000          -2.926522          -79.63471
     84       2.00000          -2.926522          -79.63471
     85       2.00000          -1.975633          -53.75972
     86       2.00000          -1.975633          -53.75972
     87       2.00000          -1.975630          -53.75962
     88       2.00000          -1.975630          -53.75962
     89       2.00000          -1.975605          -53.75896
     90       2.00000          -1.975598          -53.75875
     91       2.00000          -1.975596          -53.75870
     92       2.00000          -1.975596          -53.75870
     93       2.00000          -1.975592          -53.75859
     94       2.00000          -1.975592          -53.75859
     95       2.00000          -1.975550          -53.75746
     96       2.00000          -1.975543          -53.75725
     97       2.00000          -1.974748          -53.73562
     98       2.00000          -1.974748          -53.73562
     99       2.00000          -1.974746          -53.73558
    100       2.00000          -1.974746          -53.73558
    101       2.00000          -1.974742          -53.73545
    102       2.00000          -1.974742          -53.73545
    103       2.00000          -1.974740          -53.73542
    104       2.00000          -1.974740          -53.73542
    105       2.00000          -1.619425          -44.06678
    106       2.00000          -1.619423          -44.06674
    107       2.00000          -1.612180          -43.86966
    108       2.00000          -1.612180          -43.86966
    109       2.00000          -1.612180          -43.86966
    110       2.00000          -1.612180          -43.86966
    111       2.00000          -1.240682          -33.76066
    112       2.00000          -1.240682          -33.76066
    113       2.00000          -1.240682          -33.76066
    114       2.00000          -1.240682          -33.76066
    115       2.00000          -1.240572          -33.75769
    116       2.00000          -1.240572          -33.75769
    117       2.00000          -1.240555          -33.75723
    118       2.00000          -1.240555          -33.75723
    119       2.00000          -1.240478          -33.75512
    120       2.00000          -1.240478          -33.75512
    121       2.00000          -1.240478          -33.75512
    122       2.00000          -1.240478          -33.75511
    123       2.00000          -1.240074          -33.74414
    124       2.00000          -1.240074          -33.74414
    125       2.00000          -0.778873          -21.19422
    126       2.00000          -0.772740          -21.02733
    127       2.00000          -0.736106          -20.03045
    128       2.00000          -0.725824          -19.75068
    129       2.00000          -0.475991          -12.95238
    130       2.00000          -0.445251          -12.11590
    131       2.00000          -0.348678           -9.48800
    132       2.00000          -0.309869           -8.43196
    133       2.00000          -0.309868           -8.43193
    134       2.00000          -0.309446           -8.42046
    135       2.00000          -0.309445           -8.42042
    136       2.00000          -0.271545           -7.38912
    137       2.00000          -0.268222           -7.29870
    138       2.00000          -0.268222           -7.29868
    139       2.00000          -0.266894           -7.26254
    140       2.00000          -0.266893           -7.26253
    141       2.00000          -0.260759           -7.09562
    142       1.99998          -0.223653           -6.08591
    143       0.00000          -0.118636           -3.22824
    144       0.00000          -0.118635           -3.22822
    145       0.00000          -0.117244           -3.19037
    146       0.00000          -0.117242           -3.19032
    147       0.00000          -0.117069           -3.18562
    148       0.00000          -0.117068           -3.18559
    149       0.00000          -0.112181           -3.05260
    150       0.00000          -0.112181           -3.05259
    151       0.00000          -0.058000           -1.57826
    152       0.00000          -0.031935           -0.86901
    153       0.00000           0.079957            2.17575
    154       0.00000           0.089945            2.44753
    155       0.00000           0.098574            2.68233
    156       0.00000           0.142221            3.87003
    157       0.00000           0.176424            4.80073
    158       0.00000           0.176425            4.80076
    159       0.00000           0.187279            5.09612
    160       0.00000           0.187282            5.09619
    161       0.00000           0.189874            5.16673
    162       0.00000           0.249230            6.78191
    163       0.00000           0.259137            7.05147
    164       0.00000           0.259137            7.05148
    165       0.00000           0.276874            7.53413
    166       0.00000           0.276876            7.53418
    167       0.00000           0.326931            8.89625
    168       0.00000           0.364408            9.91604
    169       0.00000           0.388281           10.56566
    170       0.00000           0.388288           10.56586
    171       0.00000           0.401754           10.93229
    172       0.00000           0.405975           11.04715
    173       0.00000           0.405977           11.04721
    174       0.00000           0.426365           11.60198
    175       0.00000           0.426366           11.60200
    176       0.00000           0.430025           11.70157
    177       0.00000           0.449769           12.23885
    178       0.00000           0.449771           12.23888
    179       0.00000           0.461052           12.54587
    180       0.00000           0.466068           12.68236
    181       0.00000           0.516184           14.04607
    182       0.00000           0.565329           15.38338

  What follows are estimated values for band gap, HOMO, LUMO, etc.
  | They are estimated on a discrete k-point grid and not necessarily exact.
  | For converged numbers, create a DOS and/or band structure plot on a denser k-grid.

  Highest occupied state (VBM) at     -6.08590926 eV (relative to internal zero)
  | Occupation number:      1.99997766
  | K-point:       1 at    0.000000    0.000000    0.000000 (in units of recip. lattice)

  Lowest unoccupied state (CBM) at    -4.96775727 eV (relative to internal zero)
  | Occupation number:      0.00000000
  | K-point:    1278 at    0.185185    0.185185    0.000000 (in units of recip. lattice)

  ESTIMATED overall HOMO-LUMO gap:      1.11815199 eV between HOMO at k-point 1 and LUMO at k-point 1278
  | This appears to be an indirect band gap.
  | Smallest direct gap :      1.64716646 eV for k_point 2370 at    0.185185    0.185185    0.000000 (in units of recip. lattice)
  The gap value is above 0.2 eV. Unless you are using a very sparse k-point grid,
  this system is most likely an insulator or a semiconductor.
  Calculating total energy contributions from superposition of free atom densities.

  Total energy components:
  | Sum of eigenvalues            :      -26566.42623423 Ha     -722909.23905059 eV
  | XC energy correction          :       -1007.76866711 Ha      -27422.78068775 eV
  | XC potential correction       :        1315.65664793 Ha       35800.83891694 eV
  | Free-atom electrostatic energy:      -16796.51053835 Ha     -457056.30651724 eV
  | Hartree energy correction     :           0.00000000 Ha           0.00000000 eV
  | vdW energy correction         :           0.00000000 Ha           0.00000000 eV
  | Entropy correction            :          -0.00000000 Ha          -0.00000000 eV
  | ---------------------------
  | Total energy                  :      -43055.04879175 Ha    -1171587.48733865 eV
  | Total energy, T -> 0          :      -43055.04879175 Ha    -1171587.48733865 eV  <-- do not rely on this value for anything but (periodic) metals
  | Electronic free energy        :      -43055.04879175 Ha    -1171587.48733865 eV

  Derived energy quantities:
  | Kinetic energy                :       46723.56985157 Ha     1271413.02444363 eV
  | Electrostatic energy          :      -88770.84997621 Ha    -2415577.73109453 eV
  | Energy correction for multipole
  | error in Hartree potential    :           0.00000000 Ha           0.00000000 eV
  | Sum of eigenvalues per atom                           :     -120484.87317510 eV
  | Total energy (T->0) per atom                          :     -195264.58122311 eV  <-- do not rely on this value for anything but (periodic) metals
  | Electronic free energy per atom                       :     -195264.58122311 eV
  Initialize hartree_potential_storage
  Max. number of atoms included in rho_multipole:            6

  End scf initialization - timings             :  max(cpu_time)    wall_clock(cpu1)
  | Time for scf. initialization               :       14.471 s          14.537 s
  | Boundary condition initialization          :        0.246 s           0.253 s
  | Relaxation initialization                  :        0.003 s           0.007 s
  | Integration                                :        3.322 s           3.326 s
  | Solution of K.-S. eqns.                    :        9.751 s           9.795 s
  | Grid partitioning                          :        0.241 s           0.241 s
  | Preloading free-atom quantities on grid    :        0.029 s           0.030 s
  | Free-atom superposition energy             :        0.071 s           0.071 s
  | Total energy evaluation                    :        0.026 s           0.026 s

  Partial memory accounting:
  | Current value for overall tracked memory usage:
  |   Minimum:      157.195 MB (on task  0)
  |   Maximum:      157.934 MB (on task  1)
  |   Average:      157.534 MB
  | Peak value for overall tracked memory usage:
  |   Minimum:      172.295 MB (on task 12 after allocating wave)
  |   Maximum:      173.869 MB (on task  3 after allocating wave)
  |   Average:      173.219 MB
  | Largest tracked array allocation so far:
  |   Minimum:      145.526 MB (KS_eigenvector_complex on task  0)
  |   Maximum:      146.264 MB (KS_eigenvector_complex on task  1)
  |   Average:      145.864 MB
  Note:  These values currently only include a subset of arrays which are explicitly tracked.
  The "true" memory usage will be greater.
------------------------------------------------------------

------------------------------------------------------------
          Begin self-consistency iteration #    1

  Date     :  20200404, Time     :  124820.251
------------------------------------------------------------
  Evaluating new KS density using the density matrix
  Evaluating density matrix
  Time summed over all CPUs for getting density from density matrix: real work       77.568 s, elapsed       79.408 s
  Integration grid: deviation in total charge (<rho> - N_e) =  -2.487127E-09
  Pulay mixing of updated and previous charge densities.
  Renormalizing the density to the exact electron count on the 3D integration grid.
  | Formal number of electrons (from input files) :     284.0000000000
  | Integrated number of electrons on 3D grid     :     283.9998007045
  | Charge integration error                      :      -0.0001992955
  | Normalization factor for density and gradient :       1.0000007017

  Evaluating partitioned Hartree potential by multipole expansion.
  | Original multipole sum: apparent total charge =  -0.916042E-13
  | Sum of charges compensated after spline to logarithmic grids =   0.131586E-07
  | Analytical far-field extrapolation by fixed multipoles:
  | Hartree multipole sum: apparent total charge =  -0.915878E-13
  Summing up the Hartree potential.
  Time summed over all CPUs for potential: real work       18.136 s, elapsed       18.398 s
  | RMS charge density error from multipole expansion :   0.322000E-03
  | Average real-space part of the electrostatic potential :      0.00276369 eV

  Integrating Hamiltonian matrix: batch-based integration.
  Time summed over all CPUs for integration: real work       42.590 s, elapsed       43.248 s

  Updating Kohn-Sham eigenvalues and eigenvectors using ELSI and the (modified) LAPACK eigensolver.
  Starting LAPACK eigensolver
  Finished Cholesky decomposition
  | Time :     0.003 s
  Finished transformation to standard eigenproblem
  | Time :     0.005 s
  Finished solving standard eigenproblem
  | Time :     0.017 s
  Finished back-transformation of eigenvectors
  | Time :     0.002 s

  Obtaining occupation numbers and chemical potential using ELSI.
  | Chemical potential (Fermi level):    -6.01113107 eV
  Writing Kohn-Sham eigenvalues.
  K-point:       1 at    0.000000    0.000000    0.000000 (in units of recip. lattice)

  State    Occupation    Eigenvalue [Ha]    Eigenvalue [eV]
      1       2.00000       -2764.917382       -75237.22998
      2       2.00000       -2764.917382       -75237.22998
      3       2.00000        -466.356412       -12690.20364
      4       2.00000        -466.356412       -12690.20364
      5       2.00000        -466.356412       -12690.20364
      6       2.00000        -466.356412       -12690.20364
      7       2.00000        -447.838647       -12186.30962
      8       2.00000        -447.838647       -12186.30962
      9       2.00000        -391.036959       -10640.65703
     10       2.00000        -391.036959       -10640.65703
     11       2.00000        -391.036957       -10640.65698
     12       2.00000        -391.036957       -10640.65698
     13       2.00000        -391.036956       -10640.65696
     14       2.00000        -391.036956       -10640.65696
     15       2.00000        -101.939334        -2773.91041
     16       2.00000        -101.939334        -2773.91041
     17       2.00000         -85.433468        -2324.76294
     18       2.00000         -85.433468        -2324.76294
     19       2.00000         -85.433437        -2324.76211
     20       2.00000         -85.433437        -2324.76211
     21       2.00000         -85.433437        -2324.76211
     22       2.00000         -85.433437        -2324.76211
     23       2.00000         -66.533589        -1810.47106
     24       2.00000         -66.533589        -1810.47106
     25       2.00000         -66.533588        -1810.47106
     26       2.00000         -66.533588        -1810.47106
     27       2.00000         -66.533585        -1810.47098
     28       2.00000         -66.533585        -1810.47098
     29       2.00000         -66.533565        -1810.47043
     30       2.00000         -66.533565        -1810.47043
     31       2.00000         -66.533565        -1810.47043
     32       2.00000         -66.533565        -1810.47043
     33       2.00000         -59.221845        -1611.50839
     34       2.00000         -59.221845        -1611.50839
     35       2.00000         -59.221845        -1611.50839
     36       2.00000         -59.221845        -1611.50839
     37       2.00000         -52.080313        -1417.17743
     38       2.00000         -52.080313        -1417.17743
     39       2.00000         -52.080313        -1417.17743
     40       2.00000         -52.080313        -1417.17743
     41       2.00000         -52.080281        -1417.17654
     42       2.00000         -52.080281        -1417.17654
     43       2.00000         -52.080281        -1417.17654
     44       2.00000         -52.080281        -1417.17654
     45       2.00000         -52.080281        -1417.17654
     46       2.00000         -52.080281        -1417.17654
     47       2.00000         -52.080281        -1417.17654
     48       2.00000         -52.080281        -1417.17654
     49       2.00000         -20.961687         -570.39653
     50       2.00000         -20.961687         -570.39653
     51       2.00000         -15.579464         -423.93878
     52       2.00000         -15.579464         -423.93878
     53       2.00000         -15.579354         -423.93579
     54       2.00000         -15.579354         -423.93579
     55       2.00000         -15.579354         -423.93579
     56       2.00000         -15.579354         -423.93579
     57       2.00000          -8.775332         -238.78894
     58       2.00000          -8.775332         -238.78894
     59       2.00000          -8.775332         -238.78894
     60       2.00000          -8.775332         -238.78894
     61       2.00000          -8.775279         -238.78749
     62       2.00000          -8.775279         -238.78749
     63       2.00000          -8.775199         -238.78532
     64       2.00000          -8.775199         -238.78532
     65       2.00000          -8.775199         -238.78532
     66       2.00000          -8.775199         -238.78532
     67       2.00000          -7.868987         -214.12604
     68       2.00000          -7.868987         -214.12604
     69       2.00000          -7.868987         -214.12604
     70       2.00000          -7.868987         -214.12604
     71       2.00000          -5.643456         -153.56624
     72       2.00000          -5.643455         -153.56624
     73       2.00000          -5.643455         -153.56623
     74       2.00000          -5.643455         -153.56623
     75       2.00000          -5.642863         -153.55011
     76       2.00000          -5.642863         -153.55011
     77       2.00000          -5.642863         -153.55011
     78       2.00000          -5.642863         -153.55011
     79       2.00000          -5.642863         -153.55011
     80       2.00000          -5.642863         -153.55011
     81       2.00000          -5.642863         -153.55011
     82       2.00000          -5.642863         -153.55011
     83       2.00000          -2.925320          -79.60200
     84       2.00000          -2.925320          -79.60200
     85       2.00000          -1.975434          -53.75429
     86       2.00000          -1.975434          -53.75429
     87       2.00000          -1.975430          -53.75420
     88       2.00000          -1.975430          -53.75420
     89       2.00000          -1.975396          -53.75327
     90       2.00000          -1.975396          -53.75327
     91       2.00000          -1.975393          -53.75317
     92       2.00000          -1.975393          -53.75317
     93       2.00000          -1.975373          -53.75264
     94       2.00000          -1.975366          -53.75244
     95       2.00000          -1.975319          -53.75116
     96       2.00000          -1.975311          -53.75095
     97       2.00000          -1.974649          -53.73293
     98       2.00000          -1.974649          -53.73293
     99       2.00000          -1.974647          -53.73289
    100       2.00000          -1.974647          -53.73289
    101       2.00000          -1.974643          -53.73278
    102       2.00000          -1.974643          -53.73278
    103       2.00000          -1.974642          -53.73273
    104       2.00000          -1.974642          -53.73273
    105       2.00000          -1.617959          -44.02690
    106       2.00000          -1.617958          -44.02686
    107       2.00000          -1.610595          -43.82653
    108       2.00000          -1.610595          -43.82653
    109       2.00000          -1.610595          -43.82653
    110       2.00000          -1.610595          -43.82653
    111       2.00000          -1.240407          -33.75318
    112       2.00000          -1.240407          -33.75318
    113       2.00000          -1.240407          -33.75318
    114       2.00000          -1.240407          -33.75318
    115       2.00000          -1.240295          -33.75015
    116       2.00000          -1.240295          -33.75015
    117       2.00000          -1.240241          -33.74868
    118       2.00000          -1.240241          -33.74868
    119       2.00000          -1.240205          -33.74770
    120       2.00000          -1.240205          -33.74770
    121       2.00000          -1.240205          -33.74770
    122       2.00000          -1.240205          -33.74769
    123       2.00000          -1.239764          -33.73569
    124       2.00000          -1.239764          -33.73569
    125       2.00000          -0.777811          -21.16531
    126       2.00000          -0.771482          -20.99310
    127       2.00000          -0.735767          -20.02124
    128       2.00000          -0.725244          -19.73490
    129       2.00000          -0.475188          -12.93053
    130       2.00000          -0.443877          -12.07851
    131       2.00000          -0.349008           -9.49700
    132       2.00000          -0.307658           -8.37180
    133       2.00000          -0.307657           -8.37176
    134       2.00000          -0.307216           -8.35977
    135       2.00000          -0.307215           -8.35974
    136       2.00000          -0.271334           -7.38337
    137       2.00000          -0.266675           -7.25660
    138       2.00000          -0.266675           -7.25658
    139       2.00000          -0.265302           -7.21924
    140       2.00000          -0.265302           -7.21922
    141       2.00000          -0.259830           -7.07033
    142       2.00000          -0.222774           -6.06199
    143       0.00000          -0.117770           -3.20468
    144       0.00000          -0.117769           -3.20466
    145       0.00000          -0.116678           -3.17498
    146       0.00000          -0.116677           -3.17493
    147       0.00000          -0.116196           -3.16185
    148       0.00000          -0.116195           -3.16182
    149       0.00000          -0.111546           -3.03531
    150       0.00000          -0.111545           -3.03530
    151       0.00000          -0.056554           -1.53892
    152       0.00000          -0.029654           -0.80692
    153       0.00000           0.080421            2.18836
    154       0.00000           0.090274            2.45647
    155       0.00000           0.099201            2.69939
    156       0.00000           0.141456            3.84922
    157       0.00000           0.177015            4.81683
    158       0.00000           0.177016            4.81686
    159       0.00000           0.188068            5.11758
    160       0.00000           0.188070            5.11765
    161       0.00000           0.189920            5.16799
    162       0.00000           0.248280            6.75603
    163       0.00000           0.259188            7.05287
    164       0.00000           0.259188            7.05287
    165       0.00000           0.276998            7.53751
    166       0.00000           0.277000            7.53756
    167       0.00000           0.327580            8.91390
    168       0.00000           0.365288            9.93998
    169       0.00000           0.388130           10.56154
    170       0.00000           0.388137           10.56174
    171       0.00000           0.402447           10.95115
    172       0.00000           0.405954           11.04656
    173       0.00000           0.405956           11.04662
    174       0.00000           0.426284           11.59977
    175       0.00000           0.426285           11.59979
    176       0.00000           0.430925           11.72607
    177       0.00000           0.450358           12.25485
[...]
  atom #    4
   Hellmann-Feynman              :  0.571986E-02  0.447181E-02  0.392701E+02
   Ionic forces                  :  0.000000E+00  0.000000E+00  0.000000E+00
   Multipole                     : -0.868605E-04 -0.119530E-03  0.681399E-01
   Pulay + GGA                   : -0.371475E-02 -0.533136E-02 -0.393299E+02
   Van der Waals                 :  0.895612E-04  0.765124E-04 -0.779411E-02
   ----------------------------------------------------------------
   Total forces(   4)            :  0.200781E-02 -0.902568E-03  0.501688E-03
  atom #    5
   Hellmann-Feynman              :  0.578239E-02  0.452540E-02 -0.392527E+02
   Ionic forces                  :  0.000000E+00  0.000000E+00  0.000000E+00
   Multipole                     : -0.879455E-04 -0.118542E-03 -0.680034E-01
   Pulay + GGA                   : -0.387638E-02 -0.533828E-02  0.393204E+02
   Van der Waals                 :  0.909356E-04  0.771834E-04  0.766021E-02
   ----------------------------------------------------------------
   Total forces(   5)            :  0.190900E-02 -0.854236E-03  0.739022E-02
  atom #    6
   Hellmann-Feynman              : -0.550994E-02 -0.464230E-02 -0.392722E+02
   Ionic forces                  :  0.000000E+00  0.000000E+00  0.000000E+00
   Multipole                     :  0.694358E-04  0.130925E-03 -0.680785E-01
   Pulay + GGA                   :  0.179166E-02  0.663489E-02  0.393314E+02
   Van der Waals                 : -0.846126E-04 -0.797783E-04  0.781467E-02
   ----------------------------------------------------------------
   Total forces(   6)            : -0.373345E-02  0.204374E-02 -0.111110E-02


  Analytical stress tensor components [eV]         xx                  yy                  zz                  xy                  xz                  yz
  -----------------------------------------------------------------------------------------------------------------------------------------------------------
    Nuclear Hellmann-Feynman      :    -0.1090851258E+03   -0.1089981057E+03   -0.2028808759E+03   -0.7845100391E-03   -0.1326258251E-02    0.3696032306E-03
    Multipole Hellmann-Feynman    :    -0.2298400824E+03   -0.2297056547E+03   -0.3357834637E+03    0.1658989550E-01   -0.2508057489E-02    0.6700368332E-03
    On-site Multipole corrections :    -0.1089014213E+02   -0.1089089478E+02   -0.1089039721E+02   -0.1359812378E-05    0.1061715370E-07   -0.2109107483E-06
    Strain deriv. of the orbitals :     0.3478515760E+03    0.3476352738E+03    0.5481623326E+03   -0.9935118628E-02    0.3061214677E-02   -0.9401640501E-03
    vdW correction   :     0.1964575277E+01    0.1964413447E+01    0.1465166907E+01    0.3033860171E-03    0.5407576603E-07   -0.3357088051E-05
  -----------------------------------------------------------------------------------------------------------------------------------------------------------
  Sum of all contributions        :     0.8009486137E-03    0.5032015107E-02    0.7276264878E-01    0.6172293033E-02   -0.7730363703E-03    0.9590801485E-04

  +-------------------------------------------------------------------+
  |              Analytical stress tensor - Symmetrized               |
  |                  Cartesian components [eV/A**3]                   |
  +-------------------------------------------------------------------+
  |                x                y                z                |
  |                                                                   |
  |  x         0.00000645       0.00004971      -0.00000623           |
  |  y         0.00004971       0.00004053       0.00000077           |
  |  z        -0.00000623       0.00000077       0.00058599           |
  |                                                                   |
  |  Pressure:      -0.00021099   [eV/A**3]                           |
  |                                                                   |
  +-------------------------------------------------------------------+

 * Warning: Stress tensor is anisotropic. Be aware that pressure is an isotropic quantity.


  Leaving Libmbd.

  Timings for VdW correction (Tkatchenko-Scheffler 2009 or later):
  | CPU time:       15.699 s, Wall clock time:       15.701 s.
  Removing unitary transformations (pure translations, rotations) from forces on atoms.
  Atomic forces before filtering:
  | Net force on center of mass :   0.173051E-04 -0.656514E-05 -0.113862E-04 eV/A
  Atomic forces after filtering:
  | Net force on center of mass :  -0.696899E-18  0.104535E-17  0.871124E-18 eV/A

  Energy and forces in a compact form:
  | Total energy uncorrected      :         -0.117158893045035E+07 eV
  | Total energy corrected        :         -0.117158893045035E+07 eV  <-- do not rely on this value for anything but (periodic) metals
  | Electronic free energy        :         -0.117158893045035E+07 eV
  Total atomic forces (unitary forces cleaned) [eV/Ang]:
  |    1          0.330764583069258E-02          0.717354335267170E-02         -0.659131086885688E-02
  |    2          0.265518304288195E-04         -0.939208870553883E-02         -0.694598786154554E-02
  |    3         -0.350889982187103E-02          0.192832840884600E-02          0.675080076365241E-02
  |    4          0.200492403566600E-02         -0.901473946298682E-03          0.503585338548691E-03
  |    5          0.190611460014951E-02         -0.853141449655773E-03          0.739211453023055E-02
  |    6         -0.373633647506589E-02          0.204483233997558E-02         -0.110920190202923E-02

  ------------------------------------ 
  Start decomposition of the XC Energy 
  ------------------------------------ 
  X and C from original XC functional choice 
  Hartree-Fock Energy :          0.000000000 Ha              0.000000000 eV
  X Energy            :       -991.961192619 Ha         -26992.637421435 eV
  C Energy            :        -15.755595625 Ha           -428.731570591 eV
  Total XC Energy     :      -1007.716788244 Ha         -27421.368992026 eV
  ------------------------------------ 
  LDA X and C from self-consistent density 
  X Energy LDA        :       -947.555836181 Ha         -25784.306193533 eV
  C Energy LDA        :        -27.655568189 Ha           -752.546299563 eV
  ------------------------------------ 
  End decomposition of the XC Energy 
  ------------------------------------ 

------------------------------------------------------------
  Relaxation / MD: End force evaluation.       :  max(cpu_time)    wall_clock(cpu1)
  | Time for this force evaluation             :      306.846 s         307.052 s

------------------------------------------------------------
  Geometry optimization: Attempting to predict improved coordinates.

  +-------------------------------------------------------------------+
  | Generalized derivatives on lattice vectors [eV/A]                 |
  +-------------------------------------------------------------------+
  |lattice_vector       0.00132752       0.00276103      -0.00021828  |
  |lattice_vector       0.00216780       0.00176732       0.00003368  |
  |lattice_vector      -0.00005828       0.00000723       0.00548550  |
  +-------------------------------------------------------------------+
  | Forces on lattice vectors cleaned from atomic contributions [eV/A]|
  +-------------------------------------------------------------------+
  |lattice_vector      -0.00132752      -0.00276103       0.00021828  |
  |lattice_vector      -0.00216780      -0.00176732      -0.00003368  |
  |lattice_vector       0.00005828      -0.00000723      -0.00548550  |
  +-------------------------------------------------------------------+
  Symmetrized total atomic cartesian forces [eV/Ang]:
  |   1     0.3307645831E-02     0.7173543353E-02    -0.6591310869E-02
  |   2     0.2655183043E-04    -0.9392088706E-02    -0.6945987862E-02
  |   3    -0.3508899822E-02     0.1928328409E-02     0.6750800764E-02
  |   4     0.2004924036E-02    -0.9014739463E-03     0.5035853385E-03
  |   5     0.1906114600E-02    -0.8531414497E-03     0.7392114530E-02
  |   6    -0.3736336475E-02     0.2044832340E-02    -0.1109201902E-02
  +-------------------------------------------------------------------+
  | Symmetrized forces on lattice vectors cleaned from symmetrized
  | atomic contributions [eV/A]|
  +-------------------------------------------------------------------+
  |lattice_vector      -0.00088708       0.00000000       0.00000000  |
  |lattice_vector       0.00044354      -0.00076823       0.00000000  |
  |lattice_vector       0.00000000       0.00000000      -0.00548550  |
  +-------------------------------------------------------------------+
  Removing unitary transformations (pure translations, rotations) from forces on atoms.
  Atomic forces before filtering:
  | Net force on center of mass :  -0.696899E-18 -0.104535E-17  0.696899E-18 eV/A
  Atomic forces after filtering:
  | Net force on center of mass :  -0.696899E-18 -0.104535E-17 -0.104535E-17 eV/A
  Net remaining forces (excluding translations, rotations) in present geometry:
  || Forces on atoms   || =   0.939209E-02 eV/A.
  || Forces on lattice || =   0.548550E-02 eV/A^3.
  Maximum force component is  0.939209E-02 eV/A.
  Present geometry is converged.

  Symmetry-reduced parameters:
  | atomic   1          0.328629492800936E+00
  | atomic   2          0.664573331259957E+00
  | atomic   3          0.251786764102347E+00
  | atomic   4          0.675051273578477E+00
  | atomic   5          0.339158616611584E+00
  | atomic   6          0.751940762368857E+00
  | atomic   7          0.341696852889886E+00
  | atomic   8          0.672356241005040E+00
  | atomic   9          0.879168493794013E+00
  | atomic  10          0.662012442621204E+00
  | atomic  11          0.331335695427031E+00
  | atomic  12          0.379046159016942E+00
  | atomic  13          0.662016448238535E+00
  | atomic  14          0.331334622926334E+00
  | atomic  15          0.124490612084919E+00
  | atomic  16          0.341704059598479E+00
  | atomic  17          0.672352062497569E+00
  | atomic  18          0.624677778360438E+00
  | lattice  1          0.328773818491599E+01
  | lattice  2          0.132645465691234E+02
  Symmetry-reduced forces:
  | atomic   1          0.108746734997462E-01
  | atomic   2          0.149876406514822E-01
  | atomic   3         -0.874307499715211E-01
  | atomic   4          0.872954667802442E-04
  | atomic   5         -0.267854112010506E-01
  | atomic   6         -0.921353794580364E-01
  | atomic   7         -0.115363439314103E-01
  | atomic   8          0.112586335460902E-01
  | atomic   9          0.895463111083410E-01
  | atomic  10          0.659166530991498E-02
  | atomic  11         -0.586256768057124E-02
  | atomic  12          0.667983117470686E-02
  | atomic  13          0.626680575573741E-02
  | atomic  14         -0.556252248762039E-02
  | atomic  15          0.980530474305367E-01
  | atomic  16         -0.122840961007685E-01
  | atomic  17          0.119642271716698E-01
  | atomic  18         -0.147130602840269E-01
  | lattice  1         -0.177415700171286E-02
  | lattice  2         -0.548549838469498E-02
------------------------------------------------------------
  Final atomic structure:
                         x [A]             y [A]             z [A]
  lattice_vector         3.28773818        0.00000000        0.00000000
  lattice_vector        -1.64386909        2.84726479        0.00000000
  lattice_vector         0.00000000        0.00000000       13.26454657

            atom         1.63184527       -0.95504854        3.33983726  W
            atom        -1.62587870        0.96567439       -3.29039331  W
            atom         1.66201324       -0.93288854       -1.60277514  Se
            atom        -1.65588711        0.94340046        5.02787543  Se
            atom        -1.65587217        0.94339741        1.65131152  Se
            atom         1.66204380       -0.93290044       -4.97847909  Se

  Fractional coordinates:
                         L1                L2                L3
       atom_frac         0.32862949       -0.33542667        0.25178676  W
       atom_frac        -0.32494873        0.33915862       -0.24805924  W
       atom_frac         0.34169685       -0.32764376       -0.12083151  Se
       atom_frac        -0.33798756        0.33133570        0.37904616  Se
       atom_frac        -0.33798355        0.33133462        0.12449061  Se
       atom_frac         0.34170406       -0.32764794       -0.37532222  Se
------------------------------------------------------------

  Quantities derived from the lattice vectors:
  | Reciprocal lattice vector 1:  1.911097  1.103372  0.000000
  | Reciprocal lattice vector 2:  0.000000  2.206744  0.000000
  | Reciprocal lattice vector 3:  0.000000  0.000000  0.473683
  | Unit cell volume                               :   0.124170E+03  A^3

  Range separation radius for Ewald summation (hartree_convergence_parameter):      3.93629071 bohr.

------------------------------------------------------------------------------
  Final output of selected total energy values:

  The following output summarizes some interesting total energy values
  at the end of a run (AFTER all relaxation, molecular dynamics, etc.).

  | Total energy of the DFT / Hartree-Fock s.c.f. calculation      :       -1171588.930450354 eV
  | Final zero-broadening corrected energy (caution - metals only) :       -1171588.930450354 eV
  | For reference only, the value of 1 Hartree used in FHI-aims is :             27.211384500 eV
  | For reference only, the overall average (free atom contribution
  | + realspace contribution) of the electrostatic potential after
  | s.c.f. convergence is                                          :            -20.446154872 eV

  Before relying on these values, please be sure to understand exactly which
  total energy value is referred to by a given number. Different objects may
  all carry the same name 'total energy'. Definitions:

  Total energy of the DFT / Hartree-Fock s.c.f. calculation:
  | Note that this energy does not include ANY quantities calculated after the
  | s.c.f. cycle, in particular not ANY RPA, MP2, etc. many-body perturbation terms.

  Final zero-broadening corrected energy:
  | For metallic systems only, a broadening of the occupation numbers at the Fermi
  | level can be extrapolated back to zero broadening by an electron-gas inspired
  | formula. For all systems that are not real metals, this value can be
  | meaningless and should be avoided.

------------------------------------------------------------------------------
  Methods described in the following list of references were used in this FHI-aims run.
  If you publish the results, please make sure to cite these reference if they apply.
  FHI-aims is an academic code, and for our developers (often, Ph.D. students
  and postdocs), scientific credit in the community is essential.
  Thank you for helping us!

  For any use of FHI-aims, please cite:

    Volker Blum, Ralf Gehrke, Felix Hanke, Paula Havu, Ville Havu,
    Xinguo Ren, Karsten Reuter, and Matthias Scheffler
    'Ab initio molecular simulations with numeric atom-centered orbitals'
    Computer Physics Communications 180, 2175-2196 (2009)
    http://dx.doi.org/10.1016/j.cpc.2009.06.022


  For the analytical stress tensor used in your run, please cite:

    Franz Knuth, Christian Carbogno, Viktor Atalla, Volker Blum, Matthias Scheffler
    'All-electron formalism for total energy strain derivatives and
    stress tensor components for numeric atom-centered orbitals'
    Computer Physics Communications 190, 33-50 (2015).
    http://dx.doi.org/10.1016/j.cpc.2015.01.003


  The provided symmetry information was generated with SPGlib:

    Atsushi Togo, Yusuke Seto, Dimitar Pashov
    SPGlib 1.7.3 obtained from http://spglib.sourceforge.net
    Copyright (C) 2008 Atsushi Togo


  The ELSI infrastructure was used in your run to solve the Kohn-Sham electronic structure.
  Please check out http://elsi-interchange.org to learn more.
  If scalability is important for your project, please acknowledge ELSI by citing:

    V. W-z. Yu, F. Corsetti, A. Garcia, W. P. Huhn, M. Jacquelin, W. Jia,
    B. Lange, L. Lin, J. Lu, W. Mi, A. Seifitokaldani, A. Vazquez-Mayagoitia,
    C. Yang, H. Yang, and V. Blum
    'ELSI: A unified software interface for Kohn-Sham electronic structure solvers'
    Computer Physics Communications 222, 267-285 (2018).
    http://dx.doi.org/10.1016/j.cpc.2017.09.007


  For the real-space grid partitioning and parallelization used in this calculation, please cite:

    Ville Havu, Volker Blum, Paula Havu, and Matthias Scheffler,
    'Efficient O(N) integration for all-electron electronic structure calculation'
    'using numerically tabulated basis functions'
    Journal of Computational Physics 228, 8367-8379 (2009).
    http://dx.doi.org/10.1016/j.jcp.2009.08.008

  Of course, there are many other important community references, e.g., those cited in the
  above references. Our list is limited to references that describe implementations in the
  FHI-aims code. The reason is purely practical (length of this list) - please credit others as well.

------------------------------------------------------------
          Leaving FHI-aims.
          Date     :  20200404, Time     :  150820.813

          Computational steps:
          | Number of self-consistency cycles          :          371
          | Number of SCF (re)initializations          :           26
          | Number of relaxation steps                 :           25

          Detailed time accounting                     :  max(cpu_time)    wall_clock(cpu1)
          | Total time                                 :     8412.339 s        8416.457 s
          | Preparation time                           :        0.721 s           0.753 s
          | Boundary condition initalization           :        6.455 s           6.453 s
          | Grid partitioning                          :        6.292 s           6.238 s
          | Preloading free-atom quantities on grid    :       16.530 s          16.532 s
          | Free-atom superposition energy             :        1.854 s           1.853 s
          | Total time for integrations                :      726.005 s         726.047 s
          | Total time for solution of K.-S. equations :     2685.913 s        2689.440 s
          | Total time for EV reorthonormalization     :       60.519 s          60.235 s
          | Total time for density & force components  :     3853.082 s        3853.494 s
          | Total time for mixing & preconditioning    :      126.798 s         126.937 s
          | Total time for Hartree multipole update    :        1.296 s           1.223 s
          | Total time for Hartree multipole sum       :      499.350 s         499.415 s
          | Total time for total energy evaluation     :        9.374 s           9.459 s
          | Total time for scaled ZORA corrections     :        0.000 s           0.000 s
          | Total time for vdW correction              :      407.316 s         407.375 s

          Partial memory accounting:
          | Residual value for overall tracked memory usage across tasks:     0.000000 MB (should be 0.000000 MB)
          | Peak values for overall tracked memory usage:
          |   Minimum:      332.211 MB (on task 19 after allocating d_wave)
          |   Maximum:      334.384 MB (on task  1 after allocating d_wave)
          |   Average:      333.229 MB
          | Largest tracked array allocation:
          |   Minimum:      145.526 MB (KS_eigenvector_complex on task  0)
          |   Maximum:      146.264 MB (KS_eigenvector_complex on task  1)
          |   Average:      145.864 MB
          Note:  These values currently only include a subset of arrays which are explicitly tracked.
          The "true" memory usage will be greater.

          Have a nice day.
------------------------------------------------------------
