------------------------------------------------------------
          Invoking FHI-aims ...

          When using FHI-aims, please cite the following reference:

          Volker Blum, Ralf Gehrke, Felix Hanke, Paula Havu,
          Ville Havu, Xinguo Ren, Karsten Reuter, and Matthias Scheffler,
          'Ab Initio Molecular Simulations with Numeric Atom-Centered Orbitals',
          Computer Physics Communications 180, 2175-2196 (2009)

          For any questions about FHI-aims, please visit the aimsclub website
          with its forums and wiki. Contributions to both the forums and the
          wiki are warmly encouraged - they are for you, and everyone is welcome there.

------------------------------------------------------------



  Date     :  20200420, Time     :  204038.787
  Time zero on CPU 1             :   0.101041000000000E+00  s.
  Internal wall clock time zero  :           356647238.787  s.

  FHI-aims created a unique identifier for this run for later identification
  aims_uuid : 453D4F17-19C6-404A-ADB1-8E1C5850CFF6

  Build configuration of the current instance of FHI-aims
  -------------------------------------------------------
  FHI-aims version      : 200112
  Commit number         : 23daeca3f
  CMake host system     : Linux-3.10.0-693.21.1.el7.x86_64
  CMake version         : 3.13.3
  Fortran compiler      : /sw/installed/impi/2018.4.274-iccifort-2019.1.144-GCC-8.2.0-2.31.1/bin64/mpiifort (Intel) version 19.0.0.20181018
  Fortran compiler flags: -O3 -ip -fp-model precise
  C compiler            : /sw/installed/impi/2018.4.274-iccifort-2019.1.144-GCC-8.2.0-2.31.1/bin64/mpiicc (Intel) version 19.0.0.20181018
  C compiler flags      : -O3 -ip -fp-model precise
  Architecture          :
  Using MPI
  Using Scalapack
  Using C files
  Using LibXC
  Using SPGlib
  Using i-PI
  Using RLSY
  Linking against: /sw/installed/imkl/2019.1.144-iimpi-2019a/mkl/lib/intel64/libmkl_intel_lp64.so
                   /sw/installed/imkl/2019.1.144-iimpi-2019a/mkl/lib/intel64/libmkl_sequential.so
                   /sw/installed/imkl/2019.1.144-iimpi-2019a/mkl/lib/intel64/libmkl_core.so
                   /sw/installed/imkl/2019.1.144-iimpi-2019a/mkl/lib/intel64/libmkl_blacs_intelmpi_lp64.so
                   /sw/installed/imkl/2019.1.144-iimpi-2019a/mkl/lib/intel64/libmkl_scalapack_lp64.so

  Using       24 parallel tasks.
  Task        0 on host taurusi6539.taurus.hrsk.tu-dresden.de reporting.
  Task        1 on host taurusi6539.taurus.hrsk.tu-dresden.de reporting.
  Task        2 on host taurusi6539.taurus.hrsk.tu-dresden.de reporting.
  Task        3 on host taurusi6539.taurus.hrsk.tu-dresden.de reporting.
  Task        4 on host taurusi6539.taurus.hrsk.tu-dresden.de reporting.
  Task        5 on host taurusi6539.taurus.hrsk.tu-dresden.de reporting.
  Task        6 on host taurusi6539.taurus.hrsk.tu-dresden.de reporting.
  Task        7 on host taurusi6539.taurus.hrsk.tu-dresden.de reporting.
  Task        8 on host taurusi6539.taurus.hrsk.tu-dresden.de reporting.
  Task        9 on host taurusi6539.taurus.hrsk.tu-dresden.de reporting.
  Task       10 on host taurusi6539.taurus.hrsk.tu-dresden.de reporting.
  Task       11 on host taurusi6539.taurus.hrsk.tu-dresden.de reporting.
  Task       12 on host taurusi6539.taurus.hrsk.tu-dresden.de reporting.
  Task       13 on host taurusi6539.taurus.hrsk.tu-dresden.de reporting.
  Task       14 on host taurusi6539.taurus.hrsk.tu-dresden.de reporting.
  Task       15 on host taurusi6539.taurus.hrsk.tu-dresden.de reporting.
  Task       16 on host taurusi6539.taurus.hrsk.tu-dresden.de reporting.
  Task       17 on host taurusi6539.taurus.hrsk.tu-dresden.de reporting.
  Task       18 on host taurusi6539.taurus.hrsk.tu-dresden.de reporting.
  Task       19 on host taurusi6539.taurus.hrsk.tu-dresden.de reporting.
  Task       20 on host taurusi6539.taurus.hrsk.tu-dresden.de reporting.
  Task       21 on host taurusi6539.taurus.hrsk.tu-dresden.de reporting.
  Task       22 on host taurusi6539.taurus.hrsk.tu-dresden.de reporting.
  Task       23 on host taurusi6539.taurus.hrsk.tu-dresden.de reporting.

  Performing system and environment tests:
  | Environment variable OMP_NUM_THREADS correctly set to 1.
  | Maximum stacksize for task 0: unlimited
  | Maximum stacksize for task 1: unlimited
  | Maximum stacksize for task 2: unlimited
  | Maximum stacksize for task 3: unlimited
  | Maximum stacksize for task 4: unlimited
  | Maximum stacksize for task 5: unlimited
  | Maximum stacksize for task 6: unlimited
  | Maximum stacksize for task 7: unlimited
  | Maximum stacksize for task 8: unlimited
  | Maximum stacksize for task 9: unlimited
  | Maximum stacksize for task 10: unlimited
  | Maximum stacksize for task 11: unlimited
  | Maximum stacksize for task 12: unlimited
  | Maximum stacksize for task 13: unlimited
  | Maximum stacksize for task 14: unlimited
  | Maximum stacksize for task 15: unlimited
  | Maximum stacksize for task 16: unlimited
  | Maximum stacksize for task 17: unlimited
  | Maximum stacksize for task 18: unlimited
  | Maximum stacksize for task 19: unlimited
  | Maximum stacksize for task 20: unlimited
  | Maximum stacksize for task 21: unlimited
  | Maximum stacksize for task 22: unlimited
  | Maximum stacksize for task 23: unlimited
  | Current stacksize for task 0: unlimited
  | Current stacksize for task 1: unlimited
  | Current stacksize for task 2: unlimited
  | Current stacksize for task 3: unlimited
  | Current stacksize for task 4: unlimited
  | Current stacksize for task 5: unlimited
  | Current stacksize for task 6: unlimited
  | Current stacksize for task 7: unlimited
  | Current stacksize for task 8: unlimited
  | Current stacksize for task 9: unlimited
  | Current stacksize for task 10: unlimited
  | Current stacksize for task 11: unlimited
  | Current stacksize for task 12: unlimited
  | Current stacksize for task 13: unlimited
  | Current stacksize for task 14: unlimited
  | Current stacksize for task 15: unlimited
  | Current stacksize for task 16: unlimited
  | Current stacksize for task 17: unlimited
  | Current stacksize for task 18: unlimited
  | Current stacksize for task 19: unlimited
  | Current stacksize for task 20: unlimited
  | Current stacksize for task 21: unlimited
  | Current stacksize for task 22: unlimited
  | Current stacksize for task 23: unlimited
  | Checking for scalapack...
  | Testing pdtran()...
  | All pdtran() tests passed.

  Obtaining array dimensions for all initial allocations:
  
  -----------------------------------------------------------------------
  Parsing control.in (first pass over file, find array dimensions only).
  The contents of control.in will be repeated verbatim below
  unless switched off by setting 'verbatim_writeout .false.' .
  in the first line of control.in .
  -----------------------------------------------------------------------
  
  #===============================================================================
  # FHI-aims file: ./control.in
  # Created using the Atomic Simulation Environment (ASE)
  # Thu Apr  2 11:27:09 2020
  #===============================================================================
  xc                                 pbe
  # include_spin_orbit
  # vdw_correction_hirshfeld
  many_body_dispersion
  spin                               none
  k_grid 	 	 13 13 11
  relativistic                       atomic_zora scalar
  energy_tolerance 1e-2
  harmonic_length_scale  0.015
  ### SCF settings
  adjust_scf 	 always 	 3
  # frozen_core_scf 	 .true.
  # charge_mix_param  0.05
  # occupation_type 	 gaussian 	 0.01
  # sc_accuracy_eev   1E-3 	 	 # sum of eigenvalues convergence
  # sc_accuracy_etot  1E-6 	 	 # total energy convergence
  # sc_accuracy_rho   1E-3 	 	 # electron density convergence
  # elsi_restart 	 read_and_write 	 1000
  ### geometry optimisation section
  relax_geometry 	 bfgs 	 1E-2
  relax_unit_cell 	 full
  #===============================================================================
  
  ################################################################################
  #
  #  FHI-aims code project
  # Volker Blum, Fritz Haber Institute Berlin, 2009
  #
  #  Suggested "tight" defaults for Pd atom (to be pasted into control.in file)
  #
  ################################################################################
    species        Pd
  #     global species definitions
      nucleus             46
      mass                106.42
  #
      l_hartree           6
  #
      cut_pot             4.0  2.0  1.0
      basis_dep_cutoff    1e-4
  #
      radial_base         62 7.0
      radial_multiplier   2
      angular_grids specified
        division   0.3627   50
        division   0.7349  110
        division   1.0624  194
        division   1.2496  302
        division   1.6740  434
  #      division   2.0126  590
  #      division   2.0830  770
  #      division   2.7936 1202
  #       outer_grid  974
        outer_grid  434
  ################################################################################
  #
  #  Definition of "minimal" basis
  #
  ################################################################################
  #     valence basis states
      valence      5  s   1.
      valence      4  p   6.
      valence      4  d   9.
  #     ion occupancy
      ion_occ     5  s   0.
      ion_occ     4  p   6.
      ion_occ     4  d   8.
  ################################################################################
  #
  #  Suggested additional basis functions. For production calculations,
  #  uncomment them one after another (the most important basis functions are
  #  listed first).
  #
  #  Constructed for dimers: 2.0 A, 2.275 A, 2.75 A, 3.75 A
  #
  ################################################################################
  #  "First tier" - max. impr. -120.76  meV, min. impr. -5.71 meV
       ionic 5 p auto
       hydro 4 f 8
       hydro 5 g 10
       hydro 3 s 2.6
       hydro 3 d 2.5
  #  "Second tier" - max. impr. -5.00  meV, min. impr. -0.62 meV
  #     hydro 5 f 17.2
  #     hydro 6 h 14
  #     hydro 4 d 4
  #     hydro 5 f 7.6
  #     hydro 3 p 3.3
  #     hydro 4 s 9.4
  #  "Third tier" - max. impr. -0.54  meV, min. impr. -0.14 meV
  #     hydro 4 f 20
  #     hydro 5 g 12.8
  #     hydro 5 d 9.8
  #     hydro 6 h 15.2
  #     hydro 5 s 10
  #     hydro 6 p 9.8
  #  "Fourth tier" - max. impr. -0.15  meV, min. impr. -0.05 meV
  #     hydro 5 f 9.2
  #     hydro 2 s 5.6
  #     hydro 5 f 43.2
  #     hydro 5 d 13.2
  #     hydro 5 g 14
  #     hydro 4 p 4.7
  ################################################################################
  #
  #  FHI-aims code project
  # Volker Blum, Fritz Haber Institute Berlin, 2009
  #
  #  Suggested "tight" defaults for Se atom (to be pasted into control.in file)
  #
  ################################################################################
    species        Se
  #     global species definitions
      nucleus             34
      mass                78.96
  #
      l_hartree           6
  #
      cut_pot             4.0          2.0  1.0
      basis_dep_cutoff    1e-4
  #
      radial_base         55 7.0
      radial_multiplier   2
      angular_grids       specified
        division   0.0830  110
        division   0.1357  194
        division   0.7377  302
        division   0.8610  434
  #      division   0.9640  590
  #      division   1.0773  770
  #      division   2.5539  974
  #      outer_grid  974
        outer_grid  434
  ################################################################################
  #
  #  Definition of "minimal" basis
  #
  ################################################################################
  #     valence basis states
      valence      4  s   2.
      valence      4  p   4.
      valence      3  d  10.
  #     ion occupancy
      ion_occ      4  s   1.
      ion_occ      4  p   3.
      ion_occ      3  d  10.
  ################################################################################
  #
  #  Suggested additional basis functions. For production calculations,
  #  uncomment them one after another (the most important basis functions are
  #  listed first).
  #
  #  Constructed for dimers: 1.85 A, 2.15 A, 2.50 A, 3.00 A, 4.00 A
  #
  ################################################################################
  #  "First tier" - improvements: -336.21 meV to -36.85 meV
       hydro 3 d 4.3
       hydro 2 p 1.6
       hydro 4 f 7.2
       ionic 4 s auto
  #  "Second tier" - improvements: -14.39 meV to -1.49 meV
  #     hydro 5 g 10.4
  #     hydro 4 p 4.5
  #     hydro 4 d 6.2
  #     hydro 4 f 11.2
  #     hydro 1 s 0.65
  #     hydro 6 h 15.2
  #  "Third tier" - improvements: -0.46 meV and below
  #     hydro 5 g 14.4
  #     ionic 4 d auto
  #     hydro 4 f 22.4
  #     hydro 5 f 7.4
  #     hydro 5 p 8
  #     hydro 5 s 9.4
  #  "Fourth tier" - improvements: -0.12 meV and below
  #     hydro 5 d 11.6
  #     hydro 6 h 18
  #     hydro 4 p 4
  #     hydro 5 f 16
  #     hydro 4 s 3.9
  #
  #
  
  -----------------------------------------------------------------------
  Completed first pass over input file control.in .
  -----------------------------------------------------------------------
  
  
  -----------------------------------------------------------------------
  Parsing geometry.in (first pass over file, find array dimensions only).
  The contents of geometry.in will be repeated verbatim below
  unless switched off by setting 'verbatim_writeout .false.' .
  in the first line of geometry.in .
  -----------------------------------------------------------------------
  
  #
  # This is the geometry file that corresponds to the current relaxation step.
  # If you do not want this file to be written, set the "write_restart_geometry" flag to .false.
  #  aims_uuid : 77EB9819-49B3-410B-A8A1-BF86CE927F8E
  #
  lattice_vector      5.86156665      0.00000000      0.00000000
  lattice_vector      0.00000000      5.96282117      0.00000000
  lattice_vector      0.00000000      0.00000000      7.39570862
  atom_frac       0.50202968      0.00187598      0.00188170 Pd
  atom_frac       0.00184812      0.00190044      0.50206567 Pd
  atom_frac       0.00190800      0.50202185      0.00188703 Pd
  atom_frac       0.50207709      0.50205157      0.50205451 Pd
  atom_frac       0.61378696      0.11973291      0.40353089 Se
  atom_frac       0.89034852      0.88435356      0.90365057 Se
  atom_frac       0.11377535      0.38420694      0.60049281 Se
  atom_frac       0.39012309      0.61987069      0.10034737 Se
  atom_frac       0.39019895      0.88436490      0.60049727 Se
  atom_frac       0.11381742      0.11975599      0.10042937 Se
  atom_frac       0.89037093      0.61979938      0.40353693 Se
  atom_frac       0.61382413      0.38417400      0.90373410 Se
  #
  # What follows is the current estimated Hessian matrix constructed by the BFGS algorithm.
  # This is NOT the true Hessian matrix of the system.
  # If you do not want this information here, switch it off using the "hessian_to_restart_geometry" keyword.
  #
  trust_radius             0.0122096179
  hessian_block                1       1           6.726052          -2.021017          -2.973844          -2.021017          11.48125
  hessian_block                1       2          -2.285136           6.138718           2.116645          -1.849232           6.21081
  hessian_block                1       3          -3.024436           8.319767           2.895450           0.457871          -1.63415
  hessian_block                1       4           0.468693           0.442163           0.004772           0.537834          -1.04456
  hessian_block                1       5           1.199149          -3.774356          -1.476604          -2.564649           5.48934
  hessian_block                1       6           1.049765          -6.936708          -1.909275           3.370856          -8.06706
  hessian_block                1       7          -1.794352           3.676852           1.531187           0.271197          -0.11748
  hessian_block                1       8           0.895225          -3.645188          -0.797919           0.811045          -5.10756
  hessian_block                1       9          -0.122576          -0.026296           0.198260           1.855552          -5.95780
  hessian_block                1      10          -5.103424           7.970983           3.714839          -2.957905           7.90631
  hessian_block                1      11           2.543156          -6.471131          -2.384668           1.752335          -4.58463
  hessian_block                1      12           1.013794          -3.673786          -0.918844           0.336110          -2.92744
  hessian_block                2       2          12.499494           6.477747           5.747871           6.477747          13.65021
  hessian_block                2       3           9.480825           9.274359           4.938329          -2.085492          -1.86114
  hessian_block                2       4           0.483476           0.867689           0.205509          -1.668398          -0.21301
  hessian_block                2       5          -5.943133          -3.456004          -2.673575           6.529003           5.44141
  hessian_block                2       6          -8.284186          -7.994874          -4.353956          -8.444378          -9.35890
  hessian_block                2       7           3.919797           3.256565           1.745234          -0.638482          -2.24033
  hessian_block                2       8          -3.600102          -3.931146          -1.964474          -3.102887          -3.91447
  hessian_block                2       9          -2.044139           0.229329          -1.096438          -5.335442          -7.35997
  hessian_block                2      10           8.508875           7.743860           4.252214           9.068621           9.55164
  hessian_block                2      11          -7.372930          -7.374743          -3.938115          -5.367390          -7.66325
  hessian_block                2      12          -3.796925          -3.243550          -1.706453          -1.571620          -0.59596
  hessian_block                3       3          17.981642          -2.590783           9.329686          -2.590783           6.61799
  hessian_block                3       4           0.541577          -0.253669           0.087109          -1.655182           0.56278
  hessian_block                3       5          -5.252882           0.938099          -3.135813           7.901476          -1.21660
  hessian_block                3       6         -11.424285           2.645491          -6.964462         -11.407411           0.34943
  hessian_block                3       7           5.250682          -0.912771           3.307451          -0.477771           0.10449
  hessian_block                3       8          -6.518543           0.501198          -3.472012          -5.154477           0.35687
  hessian_block                3       9          -0.474590           0.400932           0.014843          -8.391463           1.39669
  hessian_block                3      10          11.114873          -1.563775           6.610177          13.086953          -4.26680
  hessian_block                3      11          -9.571412           1.922976          -5.688080          -6.660133           1.01784
  hessian_block                3      12          -6.537538           0.539921          -3.527911          -2.245335           0.21961
  hessian_block                4       4           5.800031           0.187521          -1.930335           0.187521           7.23516
  hessian_block                4       5          -0.213940           1.293429           0.011823           0.236609          -2.99677
  hessian_block                4       6          -0.549047           1.548038          -0.293439          -0.809907           0.71638
  hessian_block                4       7          -2.018186          -1.375468           0.995236          -0.498378          -0.38124
  hessian_block                4       8          -0.235577           0.233982          -0.388968          -0.059021          -0.20114
  hessian_block                4       9          -0.437398           0.590916           0.150501          -0.168377          -1.74367
  hessian_block                4      10          -0.162605          -1.680879           0.254727           0.285194          -0.81873
  hessian_block                4      11          -2.048286           0.994456           0.500605          -0.620503          -0.27825
  hessian_block                4      12          -0.062826           0.993750          -0.138559           0.390679           0.81009
  hessian_block                5       5           6.652484          -3.768781          -0.612600          -3.768781          11.42268
  hessian_block                5       6           5.243265          -7.507898           0.245829           5.400832          -8.01564
  hessian_block                5       7          -2.398819           4.484754          -0.467362          -0.242258          -0.06338
  hessian_block                5       8           1.569995          -2.920879           0.833395           2.258317          -3.31638
  hessian_block                5       9          -1.051558          -0.455590           1.693569           3.223936          -7.26454
  hessian_block                5      10          -4.643937           7.840774          -0.212609          -5.182238           8.65443
  hessian_block                5      11           4.542281          -7.049907           0.705512           2.926207          -4.88024
  hessian_block                5      12           1.863006          -2.724909          -0.122771           0.382815          -1.60727
  hessian_block                6       6          14.645050          10.214063          17.778932          10.214063          16.46354
  hessian_block                6       7          -4.732894          -5.321517          -8.493288           0.397395           0.36154
  hessian_block                6       8           4.197236           5.040918           7.321806           4.385747           4.91049
  hessian_block                6       9           0.024372           0.128202           0.056706           7.495703           8.88565
  hessian_block                6      10         -11.384961         -11.485204         -19.137854         -11.902807         -13.45567
  hessian_block                6      11           8.313616           9.052329          14.183547           6.062773           7.43967
  hessian_block                6      12           4.467982           4.261216           6.932067           1.593076           1.41757
  hessian_block                7       7           7.597841           0.294081           0.364482           0.294081           5.68864
  hessian_block                7       8          -1.938879           0.407175           0.544758          -2.055988           0.13850
  hessian_block                7       9           0.326031           0.444832          -0.035915          -4.264434          -0.11829
  hessian_block                7      10           4.985350          -0.822674          -1.889595           5.728255          -0.77168
  hessian_block                7      11          -5.881013           0.629216          -0.196107          -2.389317          -1.21491
  hessian_block                7      12          -1.749645           0.235667           0.874786          -1.121011           0.26117
  hessian_block                8       8           6.329149           1.891331          -3.519403           1.891331           7.59322
  hessian_block                8       9           0.457284          -0.391495          -0.196592           3.591256           3.80682
  hessian_block                8      10          -3.975972          -4.465232           6.073555          -5.284283          -5.21115
  hessian_block                8      11           3.755328           3.346021          -5.055449           2.630091           3.49848
  hessian_block                8      12           0.630766           2.536638          -0.721100           1.485543          -0.90663
  hessian_block                9       9           4.951028          -0.483002          -0.649470          -0.483002          12.37052
  hessian_block                9      10          -0.138599          -7.285774          -0.575403          -0.325894          -8.85545
  hessian_block                9      11          -0.179443           7.030599           0.255215          -0.310561           5.78022
  hessian_block                9      12           0.255500           2.731446           0.577533           0.198627           0.70684
  hessian_block               10      10          15.280272          11.478783          12.139499          11.478783          18.67685
  hessian_block               10      11          -8.573956          -9.587576          -9.003430          -5.794282          -7.79410
  hessian_block               10      12          -4.340004          -4.407104          -4.499643          -1.936576          -1.96862
  hessian_block               11      11          12.533741           5.769881           1.033924           5.769881           9.91169
  hessian_block               11      12           3.504826           2.000894          -0.273352           1.737878           0.41451
  hessian_block               12      12           6.316974           0.749815           3.524246           0.749815           5.82315
  hessian_block_lv             1       1          22.738340          -5.020909           4.960603          -5.020909          19.62411
  hessian_block_lv_atom        1       1          -0.864875          -0.551082          -1.118213           1.808560           1.86532
  hessian_block_lv_atom        1       2           1.723577           1.793404           2.872331           1.689201           1.44609
  hessian_block_lv_atom        1       3           2.621093           2.462391           4.091519          -0.399431          -0.26316
  hessian_block_lv_atom        1       4           0.225302           0.264008           0.248254          -0.393614          -0.64647
  hessian_block_lv_atom        1       5          -1.537809          -1.332803          -1.768214           2.452740           2.62335
  hessian_block_lv_atom        1       6          -2.244632          -3.083301          -3.903539          -2.210875          -2.47294
  hessian_block_lv_atom        1       7           1.443379           1.277595           2.222620          -0.411826          -0.52467
  hessian_block_lv_atom        1       8          -1.451458          -1.027753          -2.102128          -0.851945          -0.68101
  hessian_block_lv_atom        1       9           0.167464           0.101728          -0.211222          -2.037135          -2.23586
  hessian_block_lv_atom        1      10           2.750527           3.217510           4.296467           2.556624           2.41349
  hessian_block_lv_atom        1      11          -2.025310          -2.108412          -3.368387          -1.303054          -0.65203
  hessian_block_lv_atom        1      12          -0.807258          -1.013285          -1.259488          -0.899247          -0.87210
  symmetry_n_params 39 3 36
  symmetry_params a1 b2 c3 x0 x1 x2 x3 x4 x5 x6 x7 x8 x9 x10 x11 x12 x13 x14 x15 x16 x17 x18 x19 x20 x21 x22 x23 x24 x25 x26 x27 x28 x
  symmetry_lv a1 , 0 , 0
  symmetry_lv 0 , b2 , 0
  symmetry_lv 0 , 0 , c3
  symmetry_frac x0 , x1 , x2
  symmetry_frac x3 , x4 , x5
  symmetry_frac x6 , x7 , x8
  symmetry_frac x9 , x10 , x11
  symmetry_frac x12 , x13 , x14
  symmetry_frac x15 , x16 , x17
  symmetry_frac x18 , x19 , x20
  symmetry_frac x21 , x22 , x23
  symmetry_frac x24 , x25 , x26
  symmetry_frac x27 , x28 , x29
  symmetry_frac x30 , x31 , x32
  symmetry_frac x33 , x34 , x35
  
  -----------------------------------------------------------------------
  Completed first pass over input file geometry.in .
  -----------------------------------------------------------------------
  

  Basic array size parameters:
  | Number of species                 :        2
  | Number of atoms                   :       12
  | Number of lattice vectors         :        3
  | Max. basis fn. angular momentum   :        4
  | Max. atomic/ionic basis occupied n:        5
  | Max. number of basis fn. types    :        3
  | Max. radial fns per species/type  :       10
  | Max. logarithmic grid size        :     1444
  | Max. radial integration grid size :      125
  | Max. angular integration grid size:      434
  | Max. angular grid division number :        8
  | Radial grid for Hartree potential :     1444
  | Number of spin channels           :        1

------------------------------------------------------------
          Reading file control.in.
------------------------------------------------------------
  XC: Using PBE gradient-corrected functionals.
  Using libMBD for calculating MBD and TS energies
  Spin treatment: No spin polarisation.
  Found k-point grid:        13        13        11
  Scalar relativistic treatment of kinetic energy: on-site free-atom approximation to ZORA.
  Max energy increase before discarding BFGS move:   0.100000E-01 eV
  Assuming qualitatively harmonic for steps shorter than   0.150000E-01 A.
  S.C.F. convergence parameters will be adjusted in iteration number     3 of each new s.c.f. cycle.
  Geometry relaxation: Modified BFGS - TRM (trust radius method) for lattice optimization.
  Convergence accuracy for geometry relaxation: Maximum force <   0.100000E-01 eV/A.
 
  Reading configuration options for species Pd                  .
  | Found nuclear charge :  46.0000
  | Found atomic mass :    106.420000000000      amu
  | Found l_max for Hartree potential  :   6
  | Found cutoff potl. onset [A], width [A], scale factor :    4.00000    2.00000    1.00000
  | Threshold for basis-dependent cutoff potential is   0.100000E-03
  | Found data for basic radial integration grid :    62 points, outermost radius =    7.000 A
  | Found multiplier for basic radial grid :   2
  | Found angular grid specification: user-specified.
  | Specified grid contains     6 separate shells.
  | Check grid settings after all constraints further below.
  | Found free-atom valence shell :  5 s   1.000
  | Found free-atom valence shell :  4 p   6.000
  | Found free-atom valence shell :  4 d   9.000
  | Found free-ion valence shell :  5 s   0.000
  | Found free-ion valence shell :  4 p   6.000
  | Found free-ion valence shell :  4 d   8.000
  | Found ionic basis function :  5 p , default cutoff radius.
  | Found hydrogenic basis function :  4 f   8.000
  | Found hydrogenic basis function :  5 g  10.000
  | Found hydrogenic basis function :  3 s   2.600
  | Found hydrogenic basis function :  3 d   2.500
  Species Pd                  : Missing cutoff potential type.
  Defaulting to exp(1/x)/(1-x)^2 type cutoff potential.
  Species Pd: No 'logarithmic' tag. Using default grid for free atom:
  | Default logarithmic grid data [bohr] : 0.1000E-03 0.1000E+03 0.1012E+01
  | Will include ionic basis functions of  2.0-fold positive Pd                   ion.
  Species Pd: On-site basis accuracy parameter (for Gram-Schmidt orthonormalisation) not specified.
  Using default value basis_acc =  0.1000000E-03.
  Species Pd                  : Using default innermost maximum threshold i_radial=  2 for radial functions.
  Species Pd                  : Default cutoff onset for free atom density etc. : 0.40000000E+01 AA.
  Species Pd                  : Basic radial grid will be enhanced according to radial_multiplier =   2, to contain   125 grid points.
 
  Reading configuration options for species Se                  .
  | Found nuclear charge :  34.0000
  | Found atomic mass :    78.9600000000000      amu
  | Found l_max for Hartree potential  :   6
  | Found cutoff potl. onset [A], width [A], scale factor :    4.00000    2.00000    1.00000
  | Threshold for basis-dependent cutoff potential is   0.100000E-03
  | Found data for basic radial integration grid :    55 points, outermost radius =    7.000 A
  | Found multiplier for basic radial grid :   2
  | Found angular grid specification: user-specified.
  | Specified grid contains     5 separate shells.
  | Check grid settings after all constraints further below.
  | Found free-atom valence shell :  4 s   2.000
  | Found free-atom valence shell :  4 p   4.000
  | Found free-atom valence shell :  3 d  10.000
  | Found free-ion valence shell :  4 s   1.000
  | Found free-ion valence shell :  4 p   3.000
  | Found free-ion valence shell :  3 d  10.000
  | Found hydrogenic basis function :  3 d   4.300
  | Found hydrogenic basis function :  2 p   1.600
  | Found hydrogenic basis function :  4 f   7.200
  | Found ionic basis function :  4 s , default cutoff radius.
  Species Se                  : Missing cutoff potential type.
  Defaulting to exp(1/x)/(1-x)^2 type cutoff potential.
  Species Se: No 'logarithmic' tag. Using default grid for free atom:
  | Default logarithmic grid data [bohr] : 0.1000E-03 0.1000E+03 0.1012E+01
  | Will include ionic basis functions of  2.0-fold positive Se                   ion.
  Species Se: On-site basis accuracy parameter (for Gram-Schmidt orthonormalisation) not specified.
  Using default value basis_acc =  0.1000000E-03.
  Species Se                  : Using default innermost maximum threshold i_radial=  2 for radial functions.
  Species Se                  : Default cutoff onset for free atom density etc. : 0.40000000E+01 AA.
  Species Se                  : Basic radial grid will be enhanced according to radial_multiplier =   2, to contain   111 grid points.
 
  Finished reading input file 'control.in'. Consistency checks are next.
 
  MPI_IN_PLACE appears to work with this MPI implementation.
  | Keeping use_mpi_in_place .true. (see manual).
  Target number of points in a grid batch is not set. Defaulting to  100
  Method for grid partitioning is not set. Defaulting to parallel hash+maxmin partitioning.
  Batch size limit is not set. Defaulting to    200
  By default, will store active basis functions for each batch.
  If in need of memory, prune_basis_once .false. can be used to disable this option.
  communication_type for Hartree potential was not specified.
  Defaulting to calc_hartree .
  Defaulting to Pulay charge density mixer.
  Pulay mixer: Number of relevant iterations not set.
  Defaulting to    8 iterations.
  Pulay mixer: Number of initial linear mixing iterations not set.
  Defaulting to    0 iterations.
  Work space size for distributed Hartree potential not set.
  Defaulting to   0.200000E+03 MB.
  Mixing parameter for charge density mixing has not been set.
  Using default: charge_mix_param =     0.0500.
  The mixing parameter will be adjusted in iteration number     3 of each s.c.f. cycle (i.e., each geometry step).
  Algorithm-dependent basis array size parameters:
  | n_max_pulay                         :        8
  Maximum number of self-consistency iterations not provided.
  Presetting  1000 iterations.
  Presetting      1001 iterations before the initial mixing cycle
  is restarted anyway using the sc_init_iter criterion / keyword.
  Presetting a factor      1.000 between actual scf density residual
  and density convergence criterion sc_accuracy_rho below which sc_init_iter
  takes no effect.
 * No s.c.f. convergence criteria (sc_accuracy_*) were provided in control.in.
 * The run will proceed with a reasonable default guess, but please check whether.
 * the s.c.f. cycles seem to take too much or too little time.
  No maximum number of relaxation steps, defaulting to     1000
  Using explicit Hessian from geometry.in.
  Maximum energy tolerance by which TRM/BFGS trajectory may increase over multiple steps:   0.300000E-02
  No trust radius initializer. Defaulting to   0.200000E+00 A.
  Unit cell relaxation: Unit cell will be relaxed fully.
  Unit cell relaxation: Analytical stress will be used.
  Analytical stress will be computed.
  Analytical stress calculation: Only the upper triangle is calculated.
                                 Final output is symmetrized.
  Analytical stress calculation: scf convergence accuracy of stress not set.
                                 Analytical stress self-consistency will not be checked explicitly.
                                 Be sure to set other criteria like sc_accuracy_rho tight enough.
 * Notice: The s.c.f. convergence criterion sc_accuracy_rho was not provided.
 * We used to stop in this case, and ask the user to provide reasonable
 * scf convergence criteria. However, this led some users to employ criteria
 * that led to extremely long run times, e.g., for simple relaxation.
 * We now preset a default value for sc_accuracy_rho if it is not set.
 * You may still wish to check if this setting is too tight or too loose for your needs.
 * Based on n_atoms, FHI-aims chose sc_accuracy_rho =  0.141421E-05 .
  Force calculation: scf convergence accuracy of forces not set.
  Defaulting to 'sc_accuracy_forces not_checked'.
  Handling of forces: Unphysical translation and rotation will be removed from forces.
  No accuracy limit for integral partition fn. given. Defaulting to  0.1000E-14.
  No threshold value for u(r) in integrations given. Defaulting to  0.1000E-05.
  No occupation type (smearing scheme) given. Defaulting to Gaussian broadening, width =  0.1000E-01 eV.
  The width will be adjusted in iteration number     3 of each s.c.f. cycle (i.e., each geometry step).
  S.C.F. convergence parameters will be adjusted in iteration number     3 of the first full s.c.f. cycle only.
  No accuracy for occupation numbers given. Defaulting to  0.1000E-12.
  No threshold value for occupation numbers given. Defaulting to  0.0000E+00.
  No accuracy for fermi level given. Defaulting to  0.1000E-19.
  Maximum # of iterations to find E_F not set. Defaulting to  200.
  Preferred method for the eigenvalue solver ('KS_method') not specified in 'control.in'.
  Defaulting to serial version, LAPACK (via ELSI), since more k-points than CPUs available.
  Will not use alltoall communication since running on < 1024 CPUs.
  Threshold for basis singularities not set.
  Default threshold for basis singularities:  0.1000E-04
  partition_type (choice of integration weights) for integrals was not specified.
  | Using a version of the partition function of Stratmann and coworkers ('stratmann_sparse').
  | At each grid point, the set of atoms used to build the partition table is smoothly restricted to
  | only those atoms whose free-atom density would be non-zero at that grid point.
  Partitioning for Hartree potential was not defined. Using partition_type for integrals.
  | Adjusted default value of keyword multip_moments_threshold to:       0.10000000E-11
  | This value may affect high angular momentum components of the Hartree potential in periodic systems.
  Angular momentum expansion for Kerker preconditioner not set explicitly.
  | Using default value of   0
  No explicit requirement for turning off preconditioner.
  | By default, it will be turned off when the charge convergence reaches
  | sc_accuracy_rho  =   0.141421E-05
  No special mixing parameter while Kerker preconditioner is on.
  Using default: charge_mix_param =     0.0500.
  No q(lm)/r^(l+1) cutoff set for long-range Hartree potential.
  | Using default value of  0.100000E-09 .
  | Verify using the multipole_threshold keyword.
  Defaulting to new monopole extrapolation.
  Density update method: automatic selection selected.
  Using density matrix based charge density update.
  Using density matrix based charge density update.
  Using packed matrix style: index .
  Geometry relaxation: A file "geometry.in.next_step" is written out by default after each step.
  | This file contains the geometry of the current relaxation step as well as
  | the current Hessian matrix needed to restart the relaxation algorithm.
  | If you do not want part or all of this information, use the keywords
  | "write_restart_geometry" or "hessian_to_restart_geometry" to switch the output off.
  Defaulting to use time-reversal symmetry for k-point grid.
  Charge integration errors on the 3D integration grid will be compensated
  by explicit normalization and distribution of residual charges.
  Use the "compensate_multipole_errors" flag to change this behaviour.
------------------------------------------------------------


------------------------------------------------------------
          Reading geometry description geometry.in.
------------------------------------------------------------
  Input structure read successfully.
  The structure contains       12 atoms,  and a total of        456.000 electrons.

  Input geometry:
  | Unit cell:
  |        5.86156665        0.00000000        0.00000000
  |        0.00000000        5.96282117        0.00000000
  |        0.00000000        0.00000000        7.39570862
  | Atomic structure:
  |       Atom                x [A]            y [A]            z [A]
  |    1: Species Pd            2.94268043        0.01118613        0.01391650
  |    2: Species Pd            0.01083288        0.01133198        3.71313140
  |    3: Species Pd            0.01118387        2.99346651        0.01395592
  |    4: Species Pd            2.94295833        2.99364373        3.71304887
  |    5: Species Se            3.59775317        0.71394593        2.98439688
  |    6: Species Se            5.21883719        5.27324213        6.68313631
  |    7: Species Se            0.66690180        2.29095728        4.44106985
  |    8: Species Se            2.28673249        3.69617807        0.74213991
  |    9: Species Se            2.28717715        5.27330975        4.44110284
  |   10: Species Se            0.66714839        0.71408355        0.74274636
  |   11: Species Se            5.21896855        3.69575286        2.98444155
  |   12: Species Se            3.59797105        2.29076086        6.68375407

  Lattice parameters for 3D lattice (in Angstroms) :     5.861567    5.962821    7.395709
  Angle(s) between unit vectors (in degrees)       :    90.000000   90.000000   90.000000

  | The smallest distance between any two atoms is         2.40914945 AA.
  | The first atom of this pair is atom number                      6 .
  | The second atom of this pair is atom number                    10 .
  | Wigner-Seitz cell of the first atom image           0     0     0 .
  | (The Wigner-Seitz cell of the second atom is 0 0 0  by definition.)

  Symmetry information by spglib:
  | Precision set to  0.1E-04
  | Number of Operations  : 1
  | Space group           : 1
  | International         : P1  W
  | Schoenflies           : C1^1

  Quantities derived from the lattice vectors:
  | Reciprocal lattice vector 1:  1.071929  0.000000  0.000000
  | Reciprocal lattice vector 2:  0.000000  1.053727  0.000000
  | Reciprocal lattice vector 3:  0.000000  0.000000  0.849572
  | Unit cell volume                               :   0.258491E+03  A^3

  Range separation radius for Ewald summation (hartree_convergence_parameter):      3.99435165 bohr.

  Fractional coordinates:
                         L1                L2                L3
       atom_frac         0.50202968        0.00187598        0.00188170  Pd
       atom_frac         0.00184812        0.00190044        0.50206567  Pd
       atom_frac         0.00190800        0.50202185        0.00188703  Pd
       atom_frac         0.50207709        0.50205157        0.50205451  Pd
       atom_frac         0.61378696        0.11973291        0.40353089  Se
       atom_frac         0.89034852        0.88435356        0.90365057  Se
       atom_frac         0.11377535        0.38420694        0.60049281  Se
       atom_frac         0.39012309        0.61987069        0.10034737  Se
       atom_frac         0.39019895        0.88436490        0.60049727  Se
       atom_frac         0.11381742        0.11975599        0.10042937  Se
       atom_frac         0.89037093        0.61979938        0.40353693  Se
       atom_frac         0.61382413        0.38417400        0.90373410  Se

  Number of empty states per atom not set in control.in - providing a guess from actual geometry.
  | Total number of empty states used during s.c.f. cycle:       66
  If you use a very high smearing, use empty_states (per atom!) in control.in to increase this value.

  Structure-dependent array size parameters: 
  | Maximum number of distinct radial functions  :       27
  | Maximum number of basis functions            :      468
  | Number of Kohn-Sham states (occupied + empty):      294
------------------------------------------------------------

------------------------------------------------------------
          Preparing all fixed parts of the calculation.
------------------------------------------------------------
  Determining machine precision:
    2.225073858507201E-308
  Setting up grids for atomic and cluster calculations.

  Creating wave function, potential, and density for free atoms.

  Species: Pd

  List of occupied orbitals and eigenvalues:
    n    l              occ      energy [Ha]    energy [eV]
    1    0           2.0000      -913.269104    -24851.3168
    2    0           2.0000      -130.434372     -3549.2998
    3    0           2.0000       -23.521804      -640.0609
    4    0           2.0000        -3.256918       -88.6253
    5    0           1.0000        -0.157260        -4.2793
    2    1           6.0000      -116.910756     -3181.3035
    3    1           6.0000       -19.103344      -519.8284
    4    1           6.0000        -1.998052       -54.3697
    3    2          10.0000       -12.098182      -329.2083
    4    2           9.0000        -0.243389        -6.6230


  Species: Se

  List of occupied orbitals and eigenvalues:
    n    l              occ      energy [Ha]    energy [eV]
    1    0           2.0000      -466.337810    -12689.6975
    2    0           2.0000       -59.202598     -1610.9847
    3    0           2.0000        -7.847116      -213.5309
    4    0           2.0000        -0.634372       -17.2621
    2    1           6.0000       -52.061107     -1416.6548
    3    1           6.0000        -5.620941      -152.9536
    4    1           4.0000        -0.238469        -6.4891
    3    2          10.0000        -1.951949       -53.1152

  Creating fixed part of basis set: Ionic, confined, hydrogenic.
 
  Pd                   ion:

  List of free ionic orbitals and eigenvalues:
    n    l      energy [Ha]    energy [eV]
    1    0      -914.099884    -24873.9234
    2    0      -131.248265     -3571.4470
    3    0       -24.332473      -662.1203
    4    0        -4.059276      -110.4585
    2    1      -117.724296     -3203.4411
    3    1       -19.913908      -541.8850
    4    1        -2.795328       -76.0648
    3    2       -12.908733      -351.2645
    4    2        -1.004248       -27.3270


  List of ionic basis orbitals and eigenvalues:
    n    l      energy [Ha]    energy [eV]    outer radius [A]
    5    1        -0.516938       -14.0666       5.427025

 
  Pd                   hydrogenic:
 
  List of hydrogenic basis orbitals: 
    n    l      effective z      eigenvalue [eV]  inner max. [A]     outer max. [A]     outer radius [A]   
    4    3         8.000000       -54.4226           1.054686           1.054686           4.629581
    5    4        10.000000       -54.4226           1.330451           1.330451           5.043202
    3    0         2.600000        -9.8948           0.150992           2.606197           5.493778
    3    2         2.500000        -9.3396           1.873517           1.873517           5.493778
 
 
  Se                   ion:

  List of free ionic orbitals and eigenvalues:
    n    l      energy [Ha]    energy [eV]
    1    0      -467.261007    -12714.8189
    2    0       -60.104893     -1635.5374
    3    0        -8.743714      -237.9286
    4    0        -1.414053       -38.4783
    2    1       -52.964156     -1441.2280
    3    1        -6.516916      -177.3343
    4    1        -0.961869       -26.1738
    3    2        -2.844511       -77.4031


  List of ionic basis orbitals and eigenvalues:
    n    l      energy [Ha]    energy [eV]    outer radius [A]
    4    0        -1.414046       -38.4782       4.083166

 
  Se                   hydrogenic:
 
  List of hydrogenic basis orbitals: 
    n    l      effective z      eigenvalue [eV]  inner max. [A]     outer max. [A]     outer radius [A]   
    3    2         4.300000       -27.9518           1.103845           1.103845           5.278265
    2    1         1.600000        -8.6828           1.326010           1.326010           5.475439
    4    3         7.200000       -44.0822           1.173422           1.173422           4.965294
 

  Adding cutoff potential to free-atom effective potential.
  Creating atomic-like basis functions for current effective potential.

  Species Pd                  :

  List of atomic basis orbitals and eigenvalues:
    n    l      energy [Ha]    energy [eV]    outer radius [A]
    1    0      -913.269104    -24851.3168       0.223280
    2    0      -130.434372     -3549.2998       0.615909
    3    0       -23.521804      -640.0609       1.414312
    4    0        -3.256918       -88.6253       3.581357
    5    0        -0.157260        -4.2793       5.427025
    2    1      -116.910756     -3181.3035       0.631154
    3    1       -19.103344      -519.8284       1.540671
    4    1        -1.998052       -54.3697       4.408641
    3    2       -12.098182      -329.2083       1.806051
    4    2        -0.243389        -6.6230       5.361084


  Species Se                  :

  List of atomic basis orbitals and eigenvalues:
    n    l      energy [Ha]    energy [eV]    outer radius [A]
    1    0      -466.337810    -12689.6975       0.309561
    2    0       -59.202598     -1610.9847       0.885812
    3    0        -7.847116      -213.5309       2.355489
    4    0        -0.634372       -17.2621       5.214131
    2    1       -52.061107     -1416.6548       0.907737
    3    1        -5.620941      -152.9536       2.694529
    4    1        -0.238469        -6.4891       5.408909
    3    2        -1.951949       -53.1152       4.083166

  Assembling full basis from fixed parts.
  | Species Pd :   atomic orbital   1 s accepted.
  | Species Pd :   atomic orbital   2 s accepted.
  | Species Pd :   atomic orbital   3 s accepted.
  | Species Pd :   atomic orbital   4 s accepted.
  | Species Pd :   atomic orbital   5 s accepted.
  | Species Pd :    hydro orbital   3 s accepted.
  | Species Pd :   atomic orbital   2 p accepted.
  | Species Pd :   atomic orbital   3 p accepted.
  | Species Pd :   atomic orbital   4 p accepted.
  | Species Pd :    ionic orbital   5 p accepted.
  | Species Pd :   atomic orbital   3 d accepted.
  | Species Pd :   atomic orbital   4 d accepted.
  | Species Pd :    hydro orbital   3 d accepted.
  | Species Pd :    hydro orbital   4 f accepted.
  | Species Pd :    hydro orbital   5 g accepted.
  | Species Se :   atomic orbital   1 s accepted.
  | Species Se :   atomic orbital   2 s accepted.
  | Species Se :   atomic orbital   3 s accepted.
  | Species Se :    ionic orbital   4 s accepted.
  | Species Se :   atomic orbital   4 s accepted.
  | Species Se :   atomic orbital   2 p accepted.
  | Species Se :   atomic orbital   3 p accepted.
  | Species Se :   atomic orbital   4 p accepted.
  | Species Se :    hydro orbital   2 p accepted.
  | Species Se :   atomic orbital   3 d accepted.
  | Species Se :    hydro orbital   3 d accepted.
  | Species Se :    hydro orbital   4 f accepted.
 
  Basis size parameters after reduction:
  | Total number of radial functions:       27
  | Total number of basis functions :      468
 
  Per-task memory consumption for arrays in subroutine allocate_ext:
  |           9.993344MB.
  Testing on-site integration grid accuracy.
  |  Species  Function  <phi|h_atom|phi> (log., in eV)  <phi|h_atom|phi> (rad., in eV)
           1        1             -24851.3167505682             -24851.3148165635
           1        2              -3549.2998457785              -3549.2998098031
           1        3               -640.0608571327               -640.0608534886
           1        4                -88.6252603131                -88.6252593316
           1        5                 -4.2849374515                 -4.2849400622
           1        6                  4.9432123540                  4.9432188418
           1        7              -3181.3035399559              -3181.3035364574
           1        8               -519.8284281886               -519.8284264063
           1        9                -54.3697495804                -54.3697489261
           1       10                  0.8628369484                  0.8628370487
           1       11               -329.2082917394               -329.2082912864
           1       12                 -6.6230267036                 -6.6230265076
           1       13                  5.4924295291                  5.4924115607
           1       14                 25.0740861942                 25.0740861175
           1       15                 38.8271273823                 38.8271278029
           2       16             -12689.6974611609             -12689.6967666984
           2       17              -1610.9846578580              -1610.9846472470
           2       18               -213.5308789869               -213.5308777267
           2       19                -17.0464428502                -17.0464426496
           2       20                  6.7356859379                  6.7356842047
           2       21              -1416.6548010133              -1416.6548002108
           2       22               -152.9535734377               -152.9535727493
           2       23                 -6.4896265677                 -6.4896303794
           2       24                  5.2703037283                  5.2701679583
           2       25                -53.1152220964                -53.1152219035
           2       26                  7.6186674138                  7.6186665630
           2       27                 23.1072799052                 23.1072803137

  Preparing densities etc. for the partition functions (integrals / Hartree potential).

  Preparations completed.
  max(cpu_time)          :      0.550 s.
  Wall clock time (cpu1) :      0.660 s.
------------------------------------------------------------

------------------------------------------------------------
          Begin self-consistency loop: Initialization.

          Date     :  20200420, Time     :  204040.407
------------------------------------------------------------

  Initializing index lists of integration centers etc. from given atomic structure:
  Mapping all atomic coordinates to central unit cell.

  Initializing the k-points
  Using symmetry for reducing the k-points
  | k-points reduced from:     1859 to      930
  | Number of k-points                             :       930
  The eigenvectors in the calculations are COMPLEX.
  | K-points in task   0:        38
  | K-points in task   1:        39
  | K-points in task   2:        39
  | K-points in task   3:        39
  | K-points in task   4:        39
  | K-points in task   5:        39
  | K-points in task   6:        39
  | K-points in task   7:        39
  | K-points in task   8:        39
  | K-points in task   9:        39
  | K-points in task  10:        39
  | K-points in task  11:        39
  | K-points in task  12:        39
  | K-points in task  13:        39
  | K-points in task  14:        39
  | K-points in task  15:        39
  | K-points in task  16:        39
  | K-points in task  17:        39
  | K-points in task  18:        39
  | K-points in task  19:        38
  | K-points in task  20:        38
  | K-points in task  21:        38
  | K-points in task  22:        38
  | K-points in task  23:        38
  | Number of basis functions in the Hamiltonian integrals :      5572
  | Number of basis functions in a single unit cell        :       468
  | Number of centers in hartree potential         :      1323
  | Number of centers in hartree multipole         :       769
  | Number of centers in electron density summation:       596
  | Number of centers in basis integrals           :       638
  | Number of centers in integrals                 :       236
  | Number of centers in hamiltonian               :       596
  | Consuming       1249 KiB for k_phase.
  | Number of super-cells (origin) [n_cells]                     :         567
  | Number of super-cells (after PM_index) [n_cells]             :          86
  | Number of super-cells in hamiltonian [n_cells_in_hamiltonian]:          86
  | Size of matrix packed + index [n_hamiltonian_matrix_size] :     1300169

  Initializing relaxation algorithms.
  | Estimated reciprocal-space cutoff momentum G_max:         2.43191793 bohr^-1 .
  | Reciprocal lattice points for long-range Hartree potential:     426
  Partitioning the integration grid into batches with parallel hashing+maxmin method.
  | Number of batches:     4165
  | Maximal batch size:     110
  | Minimal batch size:      49
  | Average batch size:      92.230
  | Standard deviation of batch sizes:      10.914

  Integration load balanced across    24 MPI tasks.
  Work distribution over tasks is as follows:
  Task     0 has      15966 integration points.
  Task     1 has      15987 integration points.
  Task     2 has      15972 integration points.
  Task     3 has      16028 integration points.
  Task     4 has      16029 integration points.
  Task     5 has      15987 integration points.
  Task     6 has      16040 integration points.
  Task     7 has      16025 integration points.
  Task     8 has      16037 integration points.
  Task     9 has      15965 integration points.
  Task    10 has      16019 integration points.
  Task    11 has      16024 integration points.
  Task    12 has      15965 integration points.
  Task    13 has      15986 integration points.
  Task    14 has      15991 integration points.
  Task    15 has      16027 integration points.
  Task    16 has      16027 integration points.
  Task    17 has      16025 integration points.
  Task    18 has      16031 integration points.
  Task    19 has      16019 integration points.
  Task    20 has      16037 integration points.
  Task    21 has      15968 integration points.
  Task    22 has      15990 integration points.
  Task    23 has      15991 integration points.
  Initializing partition tables, free-atom densities, potentials, etc. across the integration grid (initialize_grid_storage).
  | initialize_grid_storage: Actual outermost partition radius vs. multipole_radius_free
  | (-- VB: in principle, multipole_radius_free should be larger, hence this output)
  | Species        1: Confinement radius =              6.000000000000000 AA, multipole_radius_free =              6.058219618167466 AA.
  | Species        1: outer_partition_radius set to              6.058219618167466 AA .
  | Species        2: Confinement radius =              6.000000000000000 AA, multipole_radius_free =              6.037996416842453 AA.
  | Species        2: outer_partition_radius set to              6.037996416842453 AA .
  | The sparse table of interatomic distances needs       2891.20 kbyte instead of      3256.35 kbyte of memory.
  | Net number of integration points:   384136
  | of which are non-zero points    :   321985
  | Numerical average free-atom electrostatic potential    :    -17.13189160 eV
  Renormalizing the initial density to the exact electron count on the 3D integration grid.
  | Initial density: Formal number of electrons (from input files) :     456.0000000000
  | Integrated number of electrons on 3D grid     :     456.0000674052
  | Charge integration error                      :       0.0000674052
  | Normalization factor for density and gradient :       0.9999998522
  Renormalizing the free-atom superposition density to the exact electron count on the 3D integration grid.
  | Formal number of electrons (from input files) :     456.0000000000
  | Integrated number of electrons on 3D grid     :     456.0000674052
  | Charge integration error                      :       0.0000674052
  | Normalization factor for density and gradient :       0.9999998522
  Obtaining max. number of non-zero basis functions in each batch (get_n_compute_maxes).
  | Maximal number of non-zero basis functions:     1010 in task     0
  | Maximal number of non-zero basis functions:     1035 in task     1
  | Maximal number of non-zero basis functions:     1015 in task     2
  | Maximal number of non-zero basis functions:     1017 in task     3
  | Maximal number of non-zero basis functions:     1022 in task     4
  | Maximal number of non-zero basis functions:     1025 in task     5
  | Maximal number of non-zero basis functions:     1017 in task     6
  | Maximal number of non-zero basis functions:     1041 in task     7
  | Maximal number of non-zero basis functions:     1031 in task     8
  | Maximal number of non-zero basis functions:     1023 in task     9
  | Maximal number of non-zero basis functions:     1034 in task    10
  | Maximal number of non-zero basis functions:     1029 in task    11
  | Maximal number of non-zero basis functions:     1043 in task    12
  | Maximal number of non-zero basis functions:     1035 in task    13
  | Maximal number of non-zero basis functions:     1010 in task    14
  | Maximal number of non-zero basis functions:     1027 in task    15
  | Maximal number of non-zero basis functions:     1038 in task    16
  | Maximal number of non-zero basis functions:     1057 in task    17
  | Maximal number of non-zero basis functions:     1026 in task    18
  | Maximal number of non-zero basis functions:     1040 in task    19
  | Maximal number of non-zero basis functions:     1027 in task    20
  | Maximal number of non-zero basis functions:     1047 in task    21
  | Maximal number of non-zero basis functions:     1017 in task    22
  | Maximal number of non-zero basis functions:     1019 in task    23
  Allocating       79.781 MB for KS_eigenvector_complex
  Integrating Hamiltonian matrix: batch-based integration.
  Time summed over all CPUs for integration: real work       64.016 s, elapsed       64.770 s
  Integrating overlap matrix.
  Time summed over all CPUs for integration: real work       46.242 s, elapsed       47.063 s
  Decreasing sparse matrix size:
  | Tolerance:  0.1000E-12
  Hamiltonian matrix
  | Array has  1122855 nonzero elements out of  1300169 elements
  | Sparsity factor is 0.136
  Overlap matrix
  | Array has  1035534 nonzero elements out of  1300169 elements
  | Sparsity factor is 0.204
  New size of hamiltonian matrix:     1122947

  Updating Kohn-Sham eigenvalues and eigenvectors using ELSI and the (modified) LAPACK eigensolver.
  Singularity check in k-point 24, task 0 (analysis for other k-points/tasks may follow below):
  Overlap matrix is not singular
  | Lowest and highest eigenvalues :  0.6399E-03,  0.7308E+01
  Finished singularity check of overlap matrix
  | Time :     0.076 s
  Starting LAPACK eigensolver
  Finished Cholesky decomposition
  | Time :     0.020 s
  Finished transformation to standard eigenproblem
  | Time :     0.024 s
  Finished solving standard eigenproblem
  | Time :     0.074 s
  Finished back-transformation of eigenvectors
  | Time :     0.010 s

  Obtaining occupation numbers and chemical potential using ELSI.
  | Chemical potential (Fermi level):    -4.61861943 eV
  Writing Kohn-Sham eigenvalues.
  K-point:       1 at    0.000000    0.000000    0.000000 (in units of recip. lattice)

  State    Occupation    Eigenvalue [Ha]    Eigenvalue [eV]
      1       2.00000        -913.279459       -24851.59852
      2       2.00000        -913.279454       -24851.59838
      3       2.00000        -913.279453       -24851.59835
      4       2.00000        -913.279427       -24851.59764
      5       2.00000        -466.350244       -12690.03580
      6       2.00000        -466.350241       -12690.03571
      7       2.00000        -466.350232       -12690.03549
      8       2.00000        -466.350227       -12690.03533
      9       2.00000        -466.350222       -12690.03519
     10       2.00000        -466.350221       -12690.03518
     11       2.00000        -466.350215       -12690.03501
     12       2.00000        -466.350209       -12690.03484
     13       2.00000        -130.445043        -3549.59022
     14       2.00000        -130.445038        -3549.59009
     15       2.00000        -130.445037        -3549.59005
     16       2.00000        -130.445010        -3549.58933
     17       2.00000        -116.921451        -3181.59456
     18       2.00000        -116.921446        -3181.59442
     19       2.00000        -116.921445        -3181.59439
     20       2.00000        -116.921442        -3181.59432
     21       2.00000        -116.921437        -3181.59419
     22       2.00000        -116.921436        -3181.59415
     23       2.00000        -116.921418        -3181.59367
     24       2.00000        -116.921410        -3181.59343
     25       2.00000        -116.921389        -3181.59288
     26       2.00000        -116.921384        -3181.59275
     27       2.00000        -116.921383        -3181.59271
     28       2.00000        -116.921357        -3181.59199
     29       2.00000         -59.215457        -1611.33457
     30       2.00000         -59.215453        -1611.33447
     31       2.00000         -59.215445        -1611.33425
     32       2.00000         -59.215439        -1611.33409
     33       2.00000         -59.215434        -1611.33395
     34       2.00000         -59.215434        -1611.33393
     35       2.00000         -59.215428        -1611.33377
     36       2.00000         -59.215421        -1611.33360
     37       2.00000         -52.073973        -1417.00489
     38       2.00000         -52.073969        -1417.00481
     39       2.00000         -52.073961        -1417.00458
     40       2.00000         -52.073955        -1417.00442
     41       2.00000         -52.073950        -1417.00428
     42       2.00000         -52.073949        -1417.00426
     43       2.00000         -52.073948        -1417.00423
     44       2.00000         -52.073945        -1417.00413
     45       2.00000         -52.073943        -1417.00409
     46       2.00000         -52.073937        -1417.00392
     47       2.00000         -52.073936        -1417.00390
     48       2.00000         -52.073930        -1417.00374
     49       2.00000         -52.073926        -1417.00361
     50       2.00000         -52.073925        -1417.00359
     51       2.00000         -52.073919        -1417.00343
     52       2.00000         -52.073912        -1417.00325
     53       2.00000         -52.073901        -1417.00294
     54       2.00000         -52.073897        -1417.00284
     55       2.00000         -52.073889        -1417.00262
     56       2.00000         -52.073884        -1417.00247
     57       2.00000         -52.073878        -1417.00233
     58       2.00000         -52.073878        -1417.00231
     59       2.00000         -52.073872        -1417.00215
     60       2.00000         -52.073866        -1417.00198
     61       2.00000         -23.533235         -640.37190
     62       2.00000         -23.533229         -640.37175
     63       2.00000         -23.533228         -640.37171
     64       2.00000         -23.533200         -640.37095
     65       2.00000         -19.115026         -520.14632
     66       2.00000         -19.115020         -520.14615
     67       2.00000         -19.115019         -520.14613
     68       2.00000         -19.114990         -520.14534
     69       2.00000         -19.114938         -520.14394
     70       2.00000         -19.114934         -520.14382
     71       2.00000         -19.114932         -520.14376
     72       2.00000         -19.114904         -520.14299
     73       2.00000         -19.114414         -520.12967
     74       2.00000         -19.114409         -520.12954
     75       2.00000         -19.114408         -520.12949
     76       2.00000         -19.114380         -520.12875
     77       2.00000         -12.109832         -329.52529
     78       2.00000         -12.109827         -329.52515
     79       2.00000         -12.109825         -329.52511
     80       2.00000         -12.109797         -329.52433
     81       2.00000         -12.109797         -329.52433
     82       2.00000         -12.109791         -329.52419
     83       2.00000         -12.109790         -329.52415
     84       2.00000         -12.109761         -329.52338
     85       2.00000         -12.109459         -329.51514
     86       2.00000         -12.109453         -329.51499
     87       2.00000         -12.109452         -329.51495
     88       2.00000         -12.109424         -329.51420
     89       2.00000         -12.109403         -329.51362
     90       2.00000         -12.109398         -329.51349
     91       2.00000         -12.109396         -329.51344
     92       2.00000         -12.109369         -329.51269
     93       2.00000         -12.109322         -329.51142
     94       2.00000         -12.109317         -329.51128
     95       2.00000         -12.109315         -329.51124
     96       2.00000         -12.109288         -329.51049
     97       2.00000          -7.861758         -213.92932
     98       2.00000          -7.861754         -213.92921
     99       2.00000          -7.861743         -213.92891
    100       2.00000          -7.861738         -213.92877
    101       2.00000          -7.861732         -213.92862
    102       2.00000          -7.861732         -213.92862
    103       2.00000          -7.861723         -213.92838
    104       2.00000          -7.861717         -213.92820
    105       2.00000          -5.636159         -153.36769
    106       2.00000          -5.636158         -153.36765
    107       2.00000          -5.636148         -153.36738
    108       2.00000          -5.636140         -153.36717
    109       2.00000          -5.636133         -153.36697
    110       2.00000          -5.636133         -153.36697
    111       2.00000          -5.636124         -153.36675
    112       2.00000          -5.636118         -153.36658
    113       2.00000          -5.635917         -153.36111
    114       2.00000          -5.635916         -153.36108
    115       2.00000          -5.635895         -153.36051
    116       2.00000          -5.635894         -153.36049
    117       2.00000          -5.635846         -153.35916
    118       2.00000          -5.635843         -153.35908
    119       2.00000          -5.635825         -153.35861
    120       2.00000          -5.635823         -153.35854
    121       2.00000          -5.635260         -153.34323
    122       2.00000          -5.635255         -153.34308
    123       2.00000          -5.635246         -153.34286
    124       2.00000          -5.635242         -153.34274
    125       2.00000          -5.635236         -153.34257
    126       2.00000          -5.635236         -153.34257
    127       2.00000          -5.635229         -153.34239
    128       2.00000          -5.635222         -153.34220
    129       2.00000          -3.273872          -89.08658
    130       2.00000          -3.273864          -89.08637
    131       2.00000          -3.273862          -89.08632
    132       2.00000          -3.273821          -89.08520
    133       2.00000          -2.020122          -54.97032
    134       2.00000          -2.020103          -54.96980
    135       2.00000          -2.020088          -54.96938
    136       2.00000          -2.020041          -54.96812
    137       2.00000          -2.019126          -54.94322
    138       2.00000          -2.019104          -54.94262
    139       2.00000          -2.019087          -54.94215
    140       2.00000          -2.019041          -54.94089
    141       2.00000          -2.013027          -54.77726
    142       2.00000          -2.013020          -54.77707
    143       2.00000          -2.013017          -54.77698
    144       2.00000          -2.012981          -54.77600
    145       2.00000          -1.969169          -53.58380
    146       2.00000          -1.969142          -53.58307
    147       2.00000          -1.969142          -53.58307
    148       2.00000          -1.969115          -53.58235
    149       2.00000          -1.968127          -53.55547
    150       2.00000          -1.968107          -53.55492
    151       2.00000          -1.968103          -53.55480
    152       2.00000          -1.968084          -53.55428
    153       2.00000          -1.967710          -53.54411
    154       2.00000          -1.967694          -53.54367
    155       2.00000          -1.967687          -53.54349
    156       2.00000          -1.967672          -53.54308
    157       2.00000          -1.967566          -53.54020
    158       2.00000          -1.967556          -53.53994
    159       2.00000          -1.967545          -53.53961
    160       2.00000          -1.967535          -53.53935
    161       2.00000          -1.967294          -53.53280
    162       2.00000          -1.967274          -53.53224
    163       2.00000          -1.967268          -53.53208
    164       2.00000          -1.967247          -53.53152
    165       2.00000          -1.967245          -53.53145
    166       2.00000          -1.967223          -53.53087
    167       2.00000          -1.967221          -53.53080
    168       2.00000          -1.967202          -53.53029
    169       2.00000          -1.967174          -53.52953
    170       2.00000          -1.967167          -53.52933
    171       2.00000          -1.967163          -53.52922
    172       2.00000          -1.967156          -53.52903
    173       2.00000          -1.967149          -53.52884
    174       2.00000          -1.967143          -53.52869
    175       2.00000          -1.967141          -53.52863
    176       2.00000          -1.967132          -53.52837
    177       2.00000          -1.966631          -53.51474
    178       2.00000          -1.966620          -53.51446
    179       2.00000          -1.966612          -53.51425
    180       2.00000          -1.966602          -53.51395
    181       2.00000          -1.966281          -53.50523
    182       2.00000          -1.966274          -53.50503
    183       2.00000          -1.966260          -53.50465
    184       2.00000          -1.966255          -53.50453
    185       2.00000          -0.759466          -20.66612
    186       2.00000          -0.739937          -20.13470
    187       2.00000          -0.720206          -19.59780
    188       2.00000          -0.718594          -19.55394
    189       2.00000          -0.652770          -17.76278
    190       2.00000          -0.640867          -17.43889
    191       2.00000          -0.639669          -17.40629
    192       2.00000          -0.627481          -17.07463
    193       2.00000          -0.418237          -11.38081
    194       2.00000          -0.410471          -11.16948
    195       2.00000          -0.389855          -10.60849
    196       2.00000          -0.376355          -10.24113
    197       2.00000          -0.370844          -10.09118
    198       2.00000          -0.369470          -10.05378
    199       2.00000          -0.365988           -9.95904
    200       2.00000          -0.365959           -9.95824
    201       2.00000          -0.364257           -9.91195
    202       2.00000          -0.362540           -9.86523
    203       2.00000          -0.361581           -9.83911
    204       2.00000          -0.351589           -9.56723
    205       2.00000          -0.342574           -9.32190
    206       2.00000          -0.331195           -9.01227
    207       2.00000          -0.325267           -8.85096
    208       2.00000          -0.317482           -8.63912
    209       2.00000          -0.316846           -8.62182
    210       2.00000          -0.305659           -8.31742
    211       2.00000          -0.288630           -7.85402
    212       2.00000          -0.286475           -7.79537
    213       2.00000          -0.284992           -7.75503
    214       2.00000          -0.279943           -7.61763
    215       2.00000          -0.279270           -7.59931
    216       2.00000          -0.277222           -7.54361
    217       2.00000          -0.276067           -7.51216
    218       2.00000          -0.275418           -7.49451
    219       2.00000          -0.273731           -7.44859
    220       2.00000          -0.270280           -7.35470
    221       2.00000          -0.265614           -7.22771
    222       2.00000          -0.264225           -7.18994
    223       2.00000          -0.263725           -7.17633
    224       2.00000          -0.258239           -7.02703
    225       2.00000          -0.223692           -6.08698
    226       2.00000          -0.214748           -5.84359
    227       2.00000          -0.212572           -5.78438
    228       0.00000          -0.162924           -4.43338
    229       0.00000          -0.153303           -4.17158
    230       0.00000          -0.134988           -3.67321
    231       0.00000          -0.129722           -3.52991
    232       0.00000          -0.128247           -3.48978
    233       0.00000          -0.125798           -3.42315
    234       0.00000          -0.115434           -3.14113
    235       0.00000          -0.115112           -3.13237
    236       0.00000          -0.082269           -2.23865
    237       0.00000          -0.037110           -1.00983
    238       0.00000          -0.029509           -0.80297
    239       0.00000          -0.000943           -0.02566
    240       0.00000           0.024054            0.65454
    241       0.00000           0.026615            0.72424
    242       0.00000           0.028612            0.77858
    243       0.00000           0.058804            1.60015
    244       0.00000           0.089442            2.43385
    245       0.00000           0.101040            2.74943
    246       0.00000           0.111780            3.04168
    247       0.00000           0.118153            3.21511
    248       0.00000           0.123450            3.35923
    249       0.00000           0.124469            3.38697
    250       0.00000           0.125371            3.41152
    251       0.00000           0.138406            3.76622
    252       0.00000           0.152330            4.14512
    253       0.00000           0.159187            4.33171
    254       0.00000           0.169922            4.62382
    255       0.00000           0.176938            4.81472
    256       0.00000           0.189679            5.16144
    257       0.00000           0.192526            5.23891
    258       0.00000           0.200010            5.44256
    259       0.00000           0.220725            6.00625
    260       0.00000           0.231236            6.29224
    261       0.00000           0.247422            6.73268
    262       0.00000           0.258089            7.02295
    263       0.00000           0.267607            7.28195
    264       0.00000           0.279701            7.61105
    265       0.00000           0.281576            7.66206
[...]
  |                x                y                z                |
  |                                                                   |
  |  x        -0.00000372      -0.00001269      -0.00003319           |
  |  y        -0.00001269      -0.00010414      -0.00000270           |
  |  z        -0.00003319      -0.00000270      -0.00004104           |
  |                                                                   |
  |  Pressure:       0.00004963   [eV/A**3]                           |
  |                                                                   |
  +-------------------------------------------------------------------+

 * Warning: Stress tensor is anisotropic. Be aware that pressure is an isotropic quantity.


  Leaving Libmbd.

  Timings for VdW correction (Tkatchenko-Scheffler 2009 or later):
  | CPU time:       10.279 s, Wall clock time:       10.280 s.
  Removing unitary transformations (pure translations, rotations) from forces on atoms.
  Atomic forces before filtering:
  | Net force on center of mass :  -0.742160E-04 -0.143374E-03  0.879362E-04 eV/A
  Atomic forces after filtering:
  | Net force on center of mass :  -0.696899E-18 -0.557519E-17 -0.609787E-18 eV/A

  Energy and forces in a compact form:
  | Total energy uncorrected      :         -0.108791111581508E+07 eV
  | Total energy corrected        :         -0.108791111676637E+07 eV  <-- do not rely on this value for anything but (periodic) metals
  | Electronic free energy        :         -0.108791111771765E+07 eV
  Total atomic forces (unitary forces cleaned) [eV/Ang]:
  |    1         -0.383607821577369E-02          0.717175824422706E-02         -0.288848897841910E-02
  |    2          0.128891967239531E-02          0.276244951271162E-02          0.207001246417039E-02
  |    3          0.500447601887117E-02          0.444760655775311E-02         -0.233311014240485E-02
  |    4          0.705663909777046E-03          0.103736809409340E-02          0.140259857528961E-02
  |    5          0.114442903530602E-02          0.180660638476380E-02         -0.221197995704594E-02
  |    6         -0.401797929903391E-02         -0.513661733192317E-02         -0.253948780696343E-02
  |    7          0.273993169380914E-02         -0.229640399237411E-02          0.688401173316800E-03
  |    8          0.397623237690510E-02         -0.358261392406804E-02          0.167412288537687E-02
  |    9         -0.218561983587323E-02         -0.212787484591858E-02          0.123353649949834E-02
  |   10          0.717117419378560E-03          0.597288574171567E-03          0.429472075660288E-02
  |   11         -0.368171766804862E-02         -0.876432178855083E-03         -0.201371483288650E-02
  |   12         -0.185537510771289E-02         -0.380313509458159E-02          0.623389363464931E-03

  ------------------------------------ 
  Start decomposition of the XC Energy 
  ------------------------------------ 
  X and C from original XC functional choice 
  Hartree-Fock Energy :          0.000000000 Ha              0.000000000 eV
  X Energy            :      -1261.088210304 Ha         -34315.956179004 eV
  C Energy            :        -23.238189452 Ha           -632.343308250 eV
  Total XC Energy     :      -1284.326399756 Ha         -34948.299487253 eV
  ------------------------------------ 
  LDA X and C from self-consistent density 
  X Energy LDA        :      -1197.519833874 Ha         -32586.172645932 eV
  C Energy LDA        :        -42.068473821 Ha          -1144.741416475 eV
  ------------------------------------ 
  End decomposition of the XC Energy 
  ------------------------------------ 

------------------------------------------------------------
  Relaxation / MD: End force evaluation.       :  max(cpu_time)    wall_clock(cpu1)
  | Time for this force evaluation             :      433.195 s         434.509 s

------------------------------------------------------------
  Geometry optimization: Attempting to predict improved coordinates.

  +-------------------------------------------------------------------+
  | Generalized derivatives on lattice vectors [eV/A]                 |
  +-------------------------------------------------------------------+
  |lattice_vector      -0.00016546      -0.00056497      -0.00147764  |
  |lattice_vector      -0.00055520      -0.00455690      -0.00011834  |
  |lattice_vector      -0.00115677      -0.00009427      -0.00143049  |
  +-------------------------------------------------------------------+
  | Forces on lattice vectors cleaned from atomic contributions [eV/A]|
  +-------------------------------------------------------------------+
  |lattice_vector       0.00016546       0.00056497       0.00147764  |
  |lattice_vector       0.00055520       0.00455690       0.00011834  |
  |lattice_vector       0.00115677       0.00009427       0.00143049  |
  +-------------------------------------------------------------------+
  Symmetrized total atomic cartesian forces [eV/Ang]:
  |   1    -0.3836078216E-02     0.7171758244E-02    -0.2888488978E-02
  |   2     0.1288919672E-02     0.2762449513E-02     0.2070012464E-02
  |   3     0.5004476019E-02     0.4447606558E-02    -0.2333110142E-02
  |   4     0.7056639098E-03     0.1037368094E-02     0.1402598575E-02
  |   5     0.1144429035E-02     0.1806606385E-02    -0.2211979957E-02
  |   6    -0.4017979299E-02    -0.5136617332E-02    -0.2539487807E-02
  |   7     0.2739931694E-02    -0.2296403992E-02     0.6884011733E-03
  |   8     0.3976232377E-02    -0.3582613924E-02     0.1674122885E-02
  |   9    -0.2185619836E-02    -0.2127874846E-02     0.1233536499E-02
  |  10     0.7171174194E-03     0.5972885742E-03     0.4294720757E-02
  |  11    -0.3681717668E-02    -0.8764321789E-03    -0.2013714833E-02
  |  12    -0.1855375108E-02    -0.3803135095E-02     0.6233893635E-03
  +-------------------------------------------------------------------+
  | Symmetrized forces on lattice vectors cleaned from symmetrized
  | atomic contributions [eV/A]|
  +-------------------------------------------------------------------+
  |lattice_vector       0.00016546       0.00000000       0.00000000  |
  |lattice_vector       0.00000000       0.00455690       0.00000000  |
  |lattice_vector       0.00000000       0.00000000       0.00143049  |
  +-------------------------------------------------------------------+
  Removing unitary transformations (pure translations, rotations) from forces on atoms.
  Atomic forces before filtering:
  | Net force on center of mass :  -0.139380E-17 -0.557519E-17 -0.104535E-17 eV/A
  Atomic forces after filtering:
  | Net force on center of mass :  -0.139380E-17 -0.557519E-17 -0.958236E-18 eV/A
  Net remaining forces (excluding translations, rotations) in present geometry:
  || Forces on atoms   || =   0.717176E-02 eV/A.
  || Forces on lattice || =   0.455690E-02 eV/A^3.
  Maximum force component is  0.717176E-02 eV/A.
  Present geometry is converged.

  Symmetry-reduced parameters:
  | atomic   1          0.501567660773856E+00
  | atomic   2          0.138517229911842E-02
  | atomic   3          0.158203431282989E-02
  | atomic   4          0.141417189853599E-02
  | atomic   5          0.134771752915822E-02
  | atomic   6          0.501247888001871E+00
  | atomic   7          0.122166388719091E-02
  | atomic   8          0.501417508941520E+00
  | atomic   9          0.159167551517710E-02
  | atomic  10          0.501355326349402E+00
  | atomic  11          0.501362867576090E+00
  | atomic  12          0.501232677272255E+00
  | atomic  13          0.613582126849367E+00
  | atomic  14          0.119549332905240E+00
  | atomic  15          0.404277397683583E+00
  | atomic  16          0.889308555543996E+00
  | atomic  17          0.883252821717405E+00
  | atomic  18          0.904410090847663E+00
  | atomic  19          0.113566373328880E+00
  | atomic  20          0.383145477030438E+00
  | atomic  21          0.598403146847875E+00
  | atomic  22          0.389047531641496E+00
  | atomic  23          0.619690696011565E+00
  | atomic  24          0.984863029340295E-01
  | atomic  25          0.389213245619768E+00
  | atomic  26          0.883141210624473E+00
  | atomic  27          0.598394766176699E+00
  | atomic  28          0.113695081470847E+00
  | atomic  29          0.119653080481537E+00
  | atomic  30          0.984746605240612E-01
  | atomic  31          0.889241119317707E+00
  | atomic  32          0.619584277873129E+00
  | atomic  33          0.404276828275699E+00
  | atomic  34          0.613562179590728E+00
  | atomic  35          0.383244838141606E+00
  | atomic  36          0.904397557933035E+00
  | lattice  1          0.585270434981124E+01
  | lattice  2          0.595571581367253E+01
  | lattice  3          0.747615655789215E+01
  Symmetry-reduced forces:
  | atomic   1         -0.224514316596748E-01
  | atomic   2          0.427129539869794E-01
  | atomic   3         -0.215947958184071E-01
  | atomic   4          0.754366577318529E-02
  | atomic   5          0.164523642473286E-01
  | atomic   6          0.154757372589259E-01
  | atomic   7          0.292897185641733E-01
  | atomic   8          0.264886807090039E-01
  | atomic   9         -0.174426966914247E-01
  | atomic  10          0.413004223425693E-02
  | atomic  11          0.617826956259142E-02
  | atomic  12          0.104860465367416E-01
  | atomic  13          0.669800479298581E-02
  | atomic  14          0.107596342148195E-01
  | atomic  15         -0.165371084617950E-01
  | atomic  16         -0.235160449209073E-01
  | atomic  17         -0.305922330725192E-01
  | atomic  18         -0.189856084217168E-01
  | atomic  19          0.160360101425424E-01
  | atomic  20         -0.136767295719632E-01
  | atomic  21          0.514659494635304E-02
  | atomic  22          0.232717125281728E-01
  | atomic  23         -0.213370304018554E-01
  | atomic  24          0.125160047882276E-01
  | atomic  25         -0.127917867204490E-01
  | atomic  26         -0.126730178693533E-01
  | atomic  27          0.922211199012387E-02
  | atomic  28          0.419707623972231E-02
  | atomic  29          0.355728100651952E-02
  | atomic  30          0.321080047487922E-01
  | atomic  31         -0.215480050105650E-01
  | atomic  32         -0.521978098721869E-02
  | atomic  33         -0.150548473536091E-01
  | atomic  34         -0.108589619634427E-01
  | atomic  35         -0.226503918243325E-01
  | atomic  36          0.466055647778856E-02
  | lattice  1          0.165458067634124E-03
  | lattice  2          0.455689784946979E-02
  | lattice  3          0.143049275646817E-02
------------------------------------------------------------
  Final atomic structure:
                         x [A]             y [A]             z [A]
  lattice_vector         5.85270435        0.00000000        0.00000000
  lattice_vector         0.00000000        5.95571581        0.00000000
  lattice_vector         0.00000000        0.00000000        7.47615656

            atom        -2.91717712        0.00824969        0.01182754  Pd
            atom         0.00827673        0.00802662       -3.72874887  Pd
            atom         0.00715004       -2.96941563        0.01189962  Pd
            atom        -2.91841985       -2.96974105       -3.72886259  Pd
            atom        -2.26158957        0.71200185        3.02244112  Se
            atom        -0.64784430       -0.69531302       -0.71464513  Se
            atom         0.66467041        2.28190558       -3.00240095  Se
            atom         2.27698018       -2.26501414        0.73629902  Se
            atom         2.27795006       -0.69597774       -3.00246360  Se
            atom         0.66542370        0.71261974        0.73621198  Se
            atom        -0.64823898       -2.26564793        3.02243686  Se
            atom        -2.26170631        2.28249734       -0.71473882  Se

  Fractional coordinates:
                         L1                L2                L3
       atom_frac        -0.49843234        0.00138517        0.00158203  Pd
       atom_frac         0.00141417        0.00134772       -0.49875211  Pd
       atom_frac         0.00122166       -0.49858249        0.00159168  Pd
       atom_frac        -0.49864467       -0.49863713       -0.49876732  Pd
       atom_frac        -0.38641787        0.11954933        0.40427740  Se
       atom_frac        -0.11069144       -0.11674718       -0.09558991  Se
       atom_frac         0.11356637        0.38314548       -0.40159685  Se
       atom_frac         0.38904753       -0.38030930        0.09848630  Se
       atom_frac         0.38921325       -0.11685879       -0.40160523  Se
       atom_frac         0.11369508        0.11965308        0.09847466  Se
       atom_frac        -0.11075888       -0.38041572        0.40427683  Se
       atom_frac        -0.38643782        0.38324484       -0.09560244  Se
------------------------------------------------------------

------------------------------------------------------------------------------
  Final output of selected total energy values:

  The following output summarizes some interesting total energy values
  at the end of a run (AFTER all relaxation, molecular dynamics, etc.).

  | Total energy of the DFT / Hartree-Fock s.c.f. calculation      :       -1087911.115815085 eV
  | Final zero-broadening corrected energy (caution - metals only) :       -1087911.116766368 eV
  | For reference only, the value of 1 Hartree used in FHI-aims is :             27.211384500 eV
  | For reference only, the overall average (free atom contribution
  | + realspace contribution) of the electrostatic potential after
  | s.c.f. convergence is                                          :            -17.003507039 eV

  Before relying on these values, please be sure to understand exactly which
  total energy value is referred to by a given number. Different objects may
  all carry the same name 'total energy'. Definitions:

  Total energy of the DFT / Hartree-Fock s.c.f. calculation:
  | Note that this energy does not include ANY quantities calculated after the
  | s.c.f. cycle, in particular not ANY RPA, MP2, etc. many-body perturbation terms.

  Final zero-broadening corrected energy:
  | For metallic systems only, a broadening of the occupation numbers at the Fermi
  | level can be extrapolated back to zero broadening by an electron-gas inspired
  | formula. For all systems that are not real metals, this value can be
  | meaningless and should be avoided.

------------------------------------------------------------------------------
  Methods described in the following list of references were used in this FHI-aims run.
  If you publish the results, please make sure to cite these reference if they apply.
  FHI-aims is an academic code, and for our developers (often, Ph.D. students
  and postdocs), scientific credit in the community is essential.
  Thank you for helping us!

  For any use of FHI-aims, please cite:

    Volker Blum, Ralf Gehrke, Felix Hanke, Paula Havu, Ville Havu,
    Xinguo Ren, Karsten Reuter, and Matthias Scheffler
    'Ab initio molecular simulations with numeric atom-centered orbitals'
    Computer Physics Communications 180, 2175-2196 (2009)
    http://dx.doi.org/10.1016/j.cpc.2009.06.022


  For the analytical stress tensor used in your run, please cite:

    Franz Knuth, Christian Carbogno, Viktor Atalla, Volker Blum, Matthias Scheffler
    'All-electron formalism for total energy strain derivatives and
    stress tensor components for numeric atom-centered orbitals'
    Computer Physics Communications 190, 33-50 (2015).
    http://dx.doi.org/10.1016/j.cpc.2015.01.003


  The provided symmetry information was generated with SPGlib:

    Atsushi Togo, Yusuke Seto, Dimitar Pashov
    SPGlib 1.7.3 obtained from http://spglib.sourceforge.net
    Copyright (C) 2008 Atsushi Togo


  The ELSI infrastructure was used in your run to solve the Kohn-Sham electronic structure.
  Please check out http://elsi-interchange.org to learn more.
  If scalability is important for your project, please acknowledge ELSI by citing:

    V. W-z. Yu, F. Corsetti, A. Garcia, W. P. Huhn, M. Jacquelin, W. Jia,
    B. Lange, L. Lin, J. Lu, W. Mi, A. Seifitokaldani, A. Vazquez-Mayagoitia,
    C. Yang, H. Yang, and V. Blum
    'ELSI: A unified software interface for Kohn-Sham electronic structure solvers'
    Computer Physics Communications 222, 267-285 (2018).
    http://dx.doi.org/10.1016/j.cpc.2017.09.007


  For the real-space grid partitioning and parallelization used in this calculation, please cite:

    Ville Havu, Volker Blum, Paula Havu, and Matthias Scheffler,
    'Efficient O(N) integration for all-electron electronic structure calculation'
    'using numerically tabulated basis functions'
    Journal of Computational Physics 228, 8367-8379 (2009).
    http://dx.doi.org/10.1016/j.jcp.2009.08.008

  Of course, there are many other important community references, e.g., those cited in the
  above references. Our list is limited to references that describe implementations in the
  FHI-aims code. The reason is purely practical (length of this list) - please credit others as well.

------------------------------------------------------------
          Leaving FHI-aims.
          Date     :  20200420, Time     :  220616.655

          Computational steps:
          | Number of self-consistency cycles          :          207
          | Number of SCF (re)initializations          :           11
          | Number of relaxation steps                 :           10

          Detailed time accounting                     :  max(cpu_time)    wall_clock(cpu1)
          | Total time                                 :     5135.669 s        5137.868 s
          | Preparation time                           :        0.550 s           0.660 s
          | Boundary condition initalization           :        1.369 s           1.363 s
          | Grid partitioning                          :        3.764 s           3.764 s
          | Preloading free-atom quantities on grid    :       11.635 s          11.636 s
          | Free-atom superposition energy             :        1.602 s           1.603 s
          | Total time for integrations                :      582.255 s         582.295 s
          | Total time for solution of K.-S. equations :     1196.353 s        1197.617 s
          | Total time for EV reorthonormalization     :       19.192 s          18.854 s
          | Total time for density & force components  :     2578.417 s        2578.690 s
          | Total time for mixing & preconditioning    :      140.040 s         140.073 s
          | Total time for Hartree multipole update    :        0.929 s           0.937 s
          | Total time for Hartree multipole sum       :      480.561 s         480.599 s
          | Total time for total energy evaluation     :        1.698 s           1.724 s
          | Total time for scaled ZORA corrections     :        0.000 s           0.000 s
          | Total time for vdW correction              :      113.042 s         113.065 s

          Partial memory accounting:
          | Residual value for overall tracked memory usage across tasks:     0.000000 MB (should be 0.000000 MB)
          | Peak values for overall tracked memory usage:
          |   Minimum:      206.324 MB (on task 22 after allocating d_wave)
          |   Maximum:      211.551 MB (on task 17 after allocating d_wave)
          |   Average:      209.831 MB
          | Largest tracked array allocation:
          |   Minimum:       79.781 MB (KS_eigenvector_complex on task  0)
          |   Maximum:       81.880 MB (KS_eigenvector_complex on task  1)
          |   Average:       81.355 MB
          Note:  These values currently only include a subset of arrays which are explicitly tracked.
          The "true" memory usage will be greater.

          Have a nice day.
------------------------------------------------------------
