------------------------------------------------------------
          Invoking FHI-aims ...

          When using FHI-aims, please cite the following reference:

          Volker Blum, Ralf Gehrke, Felix Hanke, Paula Havu,
          Ville Havu, Xinguo Ren, Karsten Reuter, and Matthias Scheffler,
          'Ab Initio Molecular Simulations with Numeric Atom-Centered Orbitals',
          Computer Physics Communications 180, 2175-2196 (2009)

          For any questions about FHI-aims, please visit the aimsclub website
          with its forums and wiki. Contributions to both the forums and the
          wiki are warmly encouraged - they are for you, and everyone is welcome there.

------------------------------------------------------------



  Date     :  20200420, Time     :  204038.793
  Time zero on CPU 1             :   0.124073000000000E+00  s.
  Internal wall clock time zero  :           356647238.793  s.

  FHI-aims created a unique identifier for this run for later identification
  aims_uuid : 28460E4E-F8AE-49E7-A4BC-0E64C342CE56

  Build configuration of the current instance of FHI-aims
  -------------------------------------------------------
  FHI-aims version      : 200112
  Commit number         : 23daeca3f
  CMake host system     : Linux-3.10.0-693.21.1.el7.x86_64
  CMake version         : 3.13.3
  Fortran compiler      : /sw/installed/impi/2018.4.274-iccifort-2019.1.144-GCC-8.2.0-2.31.1/bin64/mpiifort (Intel) version 19.0.0.20181018
  Fortran compiler flags: -O3 -ip -fp-model precise
  C compiler            : /sw/installed/impi/2018.4.274-iccifort-2019.1.144-GCC-8.2.0-2.31.1/bin64/mpiicc (Intel) version 19.0.0.20181018
  C compiler flags      : -O3 -ip -fp-model precise
  Architecture          :
  Using MPI
  Using Scalapack
  Using C files
  Using LibXC
  Using SPGlib
  Using i-PI
  Using RLSY
  Linking against: /sw/installed/imkl/2019.1.144-iimpi-2019a/mkl/lib/intel64/libmkl_intel_lp64.so
                   /sw/installed/imkl/2019.1.144-iimpi-2019a/mkl/lib/intel64/libmkl_sequential.so
                   /sw/installed/imkl/2019.1.144-iimpi-2019a/mkl/lib/intel64/libmkl_core.so
                   /sw/installed/imkl/2019.1.144-iimpi-2019a/mkl/lib/intel64/libmkl_blacs_intelmpi_lp64.so
                   /sw/installed/imkl/2019.1.144-iimpi-2019a/mkl/lib/intel64/libmkl_scalapack_lp64.so

  Using       24 parallel tasks.
  Task        0 on host taurusi6446.taurus.hrsk.tu-dresden.de reporting.
  Task        1 on host taurusi6446.taurus.hrsk.tu-dresden.de reporting.
  Task        2 on host taurusi6446.taurus.hrsk.tu-dresden.de reporting.
  Task        3 on host taurusi6446.taurus.hrsk.tu-dresden.de reporting.
  Task        4 on host taurusi6446.taurus.hrsk.tu-dresden.de reporting.
  Task        5 on host taurusi6446.taurus.hrsk.tu-dresden.de reporting.
  Task        6 on host taurusi6446.taurus.hrsk.tu-dresden.de reporting.
  Task        7 on host taurusi6446.taurus.hrsk.tu-dresden.de reporting.
  Task        8 on host taurusi6446.taurus.hrsk.tu-dresden.de reporting.
  Task        9 on host taurusi6446.taurus.hrsk.tu-dresden.de reporting.
  Task       10 on host taurusi6446.taurus.hrsk.tu-dresden.de reporting.
  Task       11 on host taurusi6446.taurus.hrsk.tu-dresden.de reporting.
  Task       12 on host taurusi6446.taurus.hrsk.tu-dresden.de reporting.
  Task       13 on host taurusi6446.taurus.hrsk.tu-dresden.de reporting.
  Task       14 on host taurusi6446.taurus.hrsk.tu-dresden.de reporting.
  Task       15 on host taurusi6446.taurus.hrsk.tu-dresden.de reporting.
  Task       16 on host taurusi6446.taurus.hrsk.tu-dresden.de reporting.
  Task       17 on host taurusi6446.taurus.hrsk.tu-dresden.de reporting.
  Task       18 on host taurusi6446.taurus.hrsk.tu-dresden.de reporting.
  Task       19 on host taurusi6446.taurus.hrsk.tu-dresden.de reporting.
  Task       20 on host taurusi6446.taurus.hrsk.tu-dresden.de reporting.
  Task       21 on host taurusi6446.taurus.hrsk.tu-dresden.de reporting.
  Task       22 on host taurusi6446.taurus.hrsk.tu-dresden.de reporting.
  Task       23 on host taurusi6446.taurus.hrsk.tu-dresden.de reporting.

  Performing system and environment tests:
  | Environment variable OMP_NUM_THREADS correctly set to 1.
  | Maximum stacksize for task 0: unlimited
  | Maximum stacksize for task 1: unlimited
  | Maximum stacksize for task 2: unlimited
  | Maximum stacksize for task 3: unlimited
  | Maximum stacksize for task 4: unlimited
  | Maximum stacksize for task 5: unlimited
  | Maximum stacksize for task 6: unlimited
  | Maximum stacksize for task 7: unlimited
  | Maximum stacksize for task 8: unlimited
  | Maximum stacksize for task 9: unlimited
  | Maximum stacksize for task 10: unlimited
  | Maximum stacksize for task 11: unlimited
  | Maximum stacksize for task 12: unlimited
  | Maximum stacksize for task 13: unlimited
  | Maximum stacksize for task 14: unlimited
  | Maximum stacksize for task 15: unlimited
  | Maximum stacksize for task 16: unlimited
  | Maximum stacksize for task 17: unlimited
  | Maximum stacksize for task 18: unlimited
  | Maximum stacksize for task 19: unlimited
  | Maximum stacksize for task 20: unlimited
  | Maximum stacksize for task 21: unlimited
  | Maximum stacksize for task 22: unlimited
  | Maximum stacksize for task 23: unlimited
  | Current stacksize for task 0: unlimited
  | Current stacksize for task 1: unlimited
  | Current stacksize for task 2: unlimited
  | Current stacksize for task 3: unlimited
  | Current stacksize for task 4: unlimited
  | Current stacksize for task 5: unlimited
  | Current stacksize for task 6: unlimited
  | Current stacksize for task 7: unlimited
  | Current stacksize for task 8: unlimited
  | Current stacksize for task 9: unlimited
  | Current stacksize for task 10: unlimited
  | Current stacksize for task 11: unlimited
  | Current stacksize for task 12: unlimited
  | Current stacksize for task 13: unlimited
  | Current stacksize for task 14: unlimited
  | Current stacksize for task 15: unlimited
  | Current stacksize for task 16: unlimited
  | Current stacksize for task 17: unlimited
  | Current stacksize for task 18: unlimited
  | Current stacksize for task 19: unlimited
  | Current stacksize for task 20: unlimited
  | Current stacksize for task 21: unlimited
  | Current stacksize for task 22: unlimited
  | Current stacksize for task 23: unlimited
  | Checking for scalapack...
  | Testing pdtran()...
  | All pdtran() tests passed.

  Obtaining array dimensions for all initial allocations:
  
  -----------------------------------------------------------------------
  Parsing control.in (first pass over file, find array dimensions only).
  The contents of control.in will be repeated verbatim below
  unless switched off by setting 'verbatim_writeout .false.' .
  in the first line of control.in .
  -----------------------------------------------------------------------
  
  #===============================================================================
  # FHI-aims file: ./control.in
  # Created using the Atomic Simulation Environment (ASE)
  # Thu Apr  2 11:27:09 2020
  #===============================================================================
  xc                                 pbe
  # include_spin_orbit
  # vdw_correction_hirshfeld
  many_body_dispersion
  spin                               none
  k_grid 	 	 11 11 9
  relativistic                       atomic_zora scalar
  energy_tolerance 1e-2
  harmonic_length_scale  0.015
  ### SCF settings
  adjust_scf 	 always 	 3
  # frozen_core_scf 	 .true.
  # charge_mix_param  0.05
  # occupation_type 	 gaussian 	 0.01
  # sc_accuracy_eev   1E-3 	 	 # sum of eigenvalues convergence
  # sc_accuracy_etot  1E-6 	 	 # total energy convergence
  # sc_accuracy_rho   1E-3 	 	 # electron density convergence
  # elsi_restart 	 read_and_write 	 1000
  ### geometry optimisation section
  relax_geometry 	 bfgs 	 1E-2
  relax_unit_cell 	 full
  #===============================================================================
  
  ################################################################################
  #
  #  FHI-aims code project
  # Volker Blum, Fritz Haber Institute Berlin, 2009
  #
  #  Suggested "tight" defaults for Pd atom (to be pasted into control.in file)
  #
  ################################################################################
    species        Pd
  #     global species definitions
      nucleus             46
      mass                106.42
  #
      l_hartree           6
  #
      cut_pot             4.0  2.0  1.0
      basis_dep_cutoff    1e-4
  #
      radial_base         62 7.0
      radial_multiplier   2
      angular_grids specified
        division   0.3627   50
        division   0.7349  110
        division   1.0624  194
        division   1.2496  302
        division   1.6740  434
  #      division   2.0126  590
  #      division   2.0830  770
  #      division   2.7936 1202
  #       outer_grid  974
        outer_grid  434
  ################################################################################
  #
  #  Definition of "minimal" basis
  #
  ################################################################################
  #     valence basis states
      valence      5  s   1.
      valence      4  p   6.
      valence      4  d   9.
  #     ion occupancy
      ion_occ     5  s   0.
      ion_occ     4  p   6.
      ion_occ     4  d   8.
  ################################################################################
  #
  #  Suggested additional basis functions. For production calculations,
  #  uncomment them one after another (the most important basis functions are
  #  listed first).
  #
  #  Constructed for dimers: 2.0 A, 2.275 A, 2.75 A, 3.75 A
  #
  ################################################################################
  #  "First tier" - max. impr. -120.76  meV, min. impr. -5.71 meV
       ionic 5 p auto
       hydro 4 f 8
       hydro 5 g 10
       hydro 3 s 2.6
       hydro 3 d 2.5
  #  "Second tier" - max. impr. -5.00  meV, min. impr. -0.62 meV
  #     hydro 5 f 17.2
  #     hydro 6 h 14
  #     hydro 4 d 4
  #     hydro 5 f 7.6
  #     hydro 3 p 3.3
  #     hydro 4 s 9.4
  #  "Third tier" - max. impr. -0.54  meV, min. impr. -0.14 meV
  #     hydro 4 f 20
  #     hydro 5 g 12.8
  #     hydro 5 d 9.8
  #     hydro 6 h 15.2
  #     hydro 5 s 10
  #     hydro 6 p 9.8
  #  "Fourth tier" - max. impr. -0.15  meV, min. impr. -0.05 meV
  #     hydro 5 f 9.2
  #     hydro 2 s 5.6
  #     hydro 5 f 43.2
  #     hydro 5 d 13.2
  #     hydro 5 g 14
  #     hydro 4 p 4.7
  ################################################################################
  #
  #  FHI-aims code project
  # Volker Blum, Fritz Haber Institute Berlin, 2009
  #
  #  Suggested "tight" defaults for Se atom (to be pasted into control.in file)
  #
  ################################################################################
    species        Se
  #     global species definitions
      nucleus             34
      mass                78.96
  #
      l_hartree           6
  #
      cut_pot             4.0          2.0  1.0
      basis_dep_cutoff    1e-4
  #
      radial_base         55 7.0
      radial_multiplier   2
      angular_grids       specified
        division   0.0830  110
        division   0.1357  194
        division   0.7377  302
        division   0.8610  434
  #      division   0.9640  590
  #      division   1.0773  770
  #      division   2.5539  974
  #      outer_grid  974
        outer_grid  434
  ################################################################################
  #
  #  Definition of "minimal" basis
  #
  ################################################################################
  #     valence basis states
      valence      4  s   2.
      valence      4  p   4.
      valence      3  d  10.
  #     ion occupancy
      ion_occ      4  s   1.
      ion_occ      4  p   3.
      ion_occ      3  d  10.
  ################################################################################
  #
  #  Suggested additional basis functions. For production calculations,
  #  uncomment them one after another (the most important basis functions are
  #  listed first).
  #
  #  Constructed for dimers: 1.85 A, 2.15 A, 2.50 A, 3.00 A, 4.00 A
  #
  ################################################################################
  #  "First tier" - improvements: -336.21 meV to -36.85 meV
       hydro 3 d 4.3
       hydro 2 p 1.6
       hydro 4 f 7.2
       ionic 4 s auto
  #  "Second tier" - improvements: -14.39 meV to -1.49 meV
  #     hydro 5 g 10.4
  #     hydro 4 p 4.5
  #     hydro 4 d 6.2
  #     hydro 4 f 11.2
  #     hydro 1 s 0.65
  #     hydro 6 h 15.2
  #  "Third tier" - improvements: -0.46 meV and below
  #     hydro 5 g 14.4
  #     ionic 4 d auto
  #     hydro 4 f 22.4
  #     hydro 5 f 7.4
  #     hydro 5 p 8
  #     hydro 5 s 9.4
  #  "Fourth tier" - improvements: -0.12 meV and below
  #     hydro 5 d 11.6
  #     hydro 6 h 18
  #     hydro 4 p 4
  #     hydro 5 f 16
  #     hydro 4 s 3.9
  #
  #
  
  -----------------------------------------------------------------------
  Completed first pass over input file control.in .
  -----------------------------------------------------------------------
  
  
  -----------------------------------------------------------------------
  Parsing geometry.in (first pass over file, find array dimensions only).
  The contents of geometry.in will be repeated verbatim below
  unless switched off by setting 'verbatim_writeout .false.' .
  in the first line of geometry.in .
  -----------------------------------------------------------------------
  
  #
  # This is the geometry file that corresponds to the current relaxation step.
  # If you do not want this file to be written, set the "write_restart_geometry" flag to .false.
  #  aims_uuid : 595D2C04-179D-480E-A20F-1DCF62A0BE4B
  #
  lattice_vector      5.85872691      0.00000000      0.00000000
  lattice_vector      0.00000000      5.96176912      0.00000000
  lattice_vector      0.00000000      0.00000000      7.41218780
  atom_frac       0.50225941      0.00190551      0.00172994 Pd
  atom_frac       0.00189130      0.00191692      0.50252125 Pd
  atom_frac       0.00197655      0.50228546      0.00178600 Pd
  atom_frac       0.50234429      0.50229552      0.50246511 Pd
  atom_frac       0.61414695      0.11986335      0.40399254 Se
  atom_frac       0.89086598      0.88478724      0.90419537 Se
  atom_frac       0.11376443      0.38442598      0.60077935 Se
  atom_frac       0.39046469      0.62021760      0.10025087 Se
  atom_frac       0.39050083      0.88480001      0.60078046 Se
  atom_frac       0.11380572      0.11985926      0.10027406 Se
  atom_frac       0.89084335      0.62021815      0.40399598 Se
  atom_frac       0.61412275      0.38441124      0.90421532 Se
  #
  # What follows is the current estimated Hessian matrix constructed by the BFGS algorithm.
  # This is NOT the true Hessian matrix of the system.
  # If you do not want this information here, switch it off using the "hessian_to_restart_geometry" keyword.
  #
  trust_radius             0.0122103965
  hessian_block                1       1           5.972287          -0.006009          -2.249678          -0.006009           6.29443
  hessian_block                1       2          -0.138762           0.472447           0.006993           0.433791           0.36939
  hessian_block                1       3          -0.092664           0.615658           0.077102          -0.014476          -0.25152
  hessian_block                1       4           0.531988           0.233507          -0.092672           0.339972          -0.33321
  hessian_block                1       5           0.002001          -0.484534          -0.139329          -0.465454           0.15826
  hessian_block                1       6          -1.741537           0.117519           0.779007           0.345533          -0.42252
  hessian_block                1       7          -0.448669           0.233875           0.143894          -0.003928           0.28070
  hessian_block                1       8          -0.274212          -0.643146           0.242373          -0.424413          -1.96979
  hessian_block                1       9          -0.150738           0.022952           0.177902          -0.409626          -0.32936
  hessian_block                1      10          -2.279719           0.802541           0.950537           0.206772          -0.20271
  hessian_block                1      11           0.208746          -0.480093          -0.101285           0.105178          -0.13894
  hessian_block                1      12          -0.022809          -0.884715           0.205157          -0.107338          -1.80770
  hessian_block                2       2           6.347024           0.241760           2.377059           0.241760           6.52676
  hessian_block                2       3           1.116514           0.373565           0.228545          -0.728552          -0.15571
  hessian_block                2       4           0.228678           0.440989           0.095216          -0.885060           0.09381
  hessian_block                2       5          -2.328598           0.359700          -0.919090           0.500596          -0.13868
  hessian_block                2       6          -0.294695          -0.800506          -0.382612          -0.028642          -0.95946
  hessian_block                2       7           0.145653          -0.510165          -0.126019           0.024580          -1.98030
  hessian_block                2       8          -0.268284          -0.096358           0.029774           0.249466          -0.10574
  hessian_block                2       9          -1.985972           0.223310          -1.010233           0.826925          -0.94621
  hessian_block                2      10           0.364917           0.280286           0.271767           0.150589           0.46072
  hessian_block                2      11          -0.850459          -0.749201          -0.421237          -0.709717          -1.90513
  hessian_block                2      12          -0.770105          -0.197171          -0.212101          -0.114393           0.38758
  hessian_block                3       3           6.551415          -0.627331           2.339390          -0.627331           6.46444
  hessian_block                3       4           0.251636          -0.222282          -0.092403          -0.939471           0.73786
  hessian_block                3       5          -0.623692           0.291401          -0.218238           0.138305           0.20556
  hessian_block                3       6          -1.001243           0.522294          -0.652443           0.082473          -1.98032
  hessian_block                3       7           0.332028          -0.150554           0.241763           0.385275          -0.45474
  hessian_block                3       8          -1.958160          -0.393332          -0.771115          -0.374519          -0.59411
  hessian_block                3       9          -0.341437           0.329784           0.069563           0.097599          -0.30936
  hessian_block                3      10           0.663891           0.515305           0.273363           0.932377          -1.87958
  hessian_block                3      11          -0.743559           0.491239          -0.206160          -0.053086          -0.02009
  hessian_block                3      12          -2.588817          -0.013493          -1.015787          -0.630844          -0.11539
  hessian_block                4       4           5.893285          -0.005142          -2.015030          -0.005142           6.90902
  hessian_block                4       5          -0.408009           1.157732           0.280883           0.248040          -1.77154
  hessian_block                4       6          -0.248691          -0.458292          -0.115176          -0.304095          -0.77880
  hessian_block                4       7          -1.925939          -0.904411           0.790669          -0.290661          -1.05824
  hessian_block                4       8          -0.171425           0.225984           0.042002           0.167340          -0.41639
  hessian_block                4       9          -0.334662           0.463561           0.127324           0.126352          -2.62148
  hessian_block                4      10          -0.244059           0.121083          -0.048007          -0.175730           0.48807
  hessian_block                4      11          -1.886863           0.189564           0.813881          -0.518041           0.09696
  hessian_block                4      12          -0.120027           0.694481          -0.009505           0.299723           0.30096
  hessian_block                5       5           5.416250          -0.584407          -1.216463          -0.584407           5.77089
  hessian_block                5       6           0.294103           0.182072          -0.193887           0.043410          -0.09691
  hessian_block                5       7          -0.592596           0.848232           0.027280          -1.164131           0.35638
  hessian_block                5       8          -0.023286          -0.234639           0.426613           0.205673          -0.33759
  hessian_block                5       9          -1.334389          -0.315372           1.753601          -0.572520          -1.66371
  hessian_block                5      10          -0.181000           0.175494           0.358631           0.178036           0.37437
  hessian_block                5      11           0.823554          -0.698440           0.044199           0.791829          -0.89674
  hessian_block                5      12           0.521569           0.205572          -0.508727          -0.222187          -0.31326
  hessian_block                6       6           4.950103           0.362931           1.636866           0.362931           5.92985
  hessian_block                6       7           0.382985           0.017936           0.086840           0.475746           0.41456
  hessian_block                6       8           0.506618           0.508871           0.519954           0.559287           0.43459
  hessian_block                6       9           0.012955           0.165004          -0.004182           0.253813           0.85096
  hessian_block                6      10          -1.413490          -1.224165          -2.511641          -1.412603          -2.10092
  hessian_block                6      11          -0.159290           0.093151          -0.184775           0.346774           0.57230
  hessian_block                6      12           0.278096          -0.062405           0.042280          -0.149030          -0.21630
  hessian_block                7       7           5.365041           0.945284           0.911334           0.945284           6.60823
  hessian_block                7       8          -0.189807           0.123417          -0.397198          -0.018384           0.05870
  hessian_block                7       9           0.451926           0.610638          -0.113847          -0.404632          -0.14123
  hessian_block                7      10          -0.012515          -0.503722          -0.538850           0.244437          -0.53103
  hessian_block                7      11          -1.887561          -0.144471          -1.578306           0.031101          -2.12703
  hessian_block                7      12          -0.054632          -0.458024           0.424028          -0.332723           0.22101
  hessian_block                8       8           4.489698          -0.154544          -1.124809          -0.154544           5.57281
  hessian_block                8       9           0.361521          -0.405152          -0.216211           0.226519           0.38830
  hessian_block                8      10          -0.390130          -0.497854           0.170351          -0.434490          -0.36840
  hessian_block                8      11           0.291207          -0.206019          -0.137630          -0.242596           0.40176
  hessian_block                8      12          -0.807831           0.899118           1.737844           1.114313          -1.41711
  hessian_block                9       9           5.010531          -0.464216          -0.718827          -0.464216           6.43233
  hessian_block                9      10           0.039734           0.266448          -0.413016          -0.278543          -0.20530
  hessian_block                9      11          -0.242785           0.479050           0.023346          -0.504343           0.57563
  hessian_block                9      12           0.079226          -0.425711           0.674106           0.152378          -0.38354
  hessian_block               10      10           5.340790           0.713345           1.565045           0.713345           6.48250
  hessian_block               10      11           0.038876          -0.111651           0.437394          -0.343493          -0.59826
  hessian_block               10      12          -0.361385          -0.012539           0.057209          -0.305267          -0.27243
  hessian_block               11      11           5.623943           0.915698           0.812614           0.915698           5.89389
  hessian_block               11      12           0.350103           0.180695          -0.493671           0.221177          -0.20733
  hessian_block               12      12           5.062523           0.074192          -0.900832           0.074192           5.47055
  hessian_block_lv             1       1          26.699222           0.641384           5.702699           0.641384          29.72965
  hessian_block_lv_atom        1       1           0.424235           0.656900           0.107413          -0.322424          -0.60221
  hessian_block_lv_atom        1       2          -1.298961          -2.380062          -0.467301           0.432661           0.76236
  hessian_block_lv_atom        1       3          -1.163195          -1.657692          -0.279755           1.102742           1.84022
  hessian_block_lv_atom        1       4          -0.011633           0.096965           0.036133           1.894602           3.35699
  hessian_block_lv_atom        1       5           1.079964           1.663954           0.558142           0.173784          -0.45369
  hessian_block_lv_atom        1       6          -0.556872          -0.221646          -0.268239          -0.994984          -0.98061
  hessian_block_lv_atom        1       7          -1.008021          -1.895334          -0.141688          -2.132870          -3.42038
  hessian_block_lv_atom        1       8          -0.110953          -0.587072          -0.494304          -0.568388          -0.85547
  hessian_block_lv_atom        1       9          -0.083863           0.080068          -0.235508          -1.360090          -1.46888
  hessian_block_lv_atom        1      10           0.052113          -0.077509           0.232637           0.492720           0.41074
  hessian_block_lv_atom        1      11           1.350581           2.489155           0.263043           0.993951           1.22027
  hessian_block_lv_atom        1      12           1.326605           1.832272           0.689427           0.288299           0.19065
  symmetry_n_params 39 3 36
  symmetry_params a1 b2 c3 x0 x1 x2 x3 x4 x5 x6 x7 x8 x9 x10 x11 x12 x13 x14 x15 x16 x17 x18 x19 x20 x21 x22 x23 x24 x25 x26 x27 x28 x
  symmetry_lv a1 , 0 , 0
  symmetry_lv 0 , b2 , 0
  symmetry_lv 0 , 0 , c3
  symmetry_frac x0 , x1 , x2
  symmetry_frac x3 , x4 , x5
  symmetry_frac x6 , x7 , x8
  symmetry_frac x9 , x10 , x11
  symmetry_frac x12 , x13 , x14
  symmetry_frac x15 , x16 , x17
  symmetry_frac x18 , x19 , x20
  symmetry_frac x21 , x22 , x23
  symmetry_frac x24 , x25 , x26
  symmetry_frac x27 , x28 , x29
  symmetry_frac x30 , x31 , x32
  symmetry_frac x33 , x34 , x35
  
  -----------------------------------------------------------------------
  Completed first pass over input file geometry.in .
  -----------------------------------------------------------------------
  

  Basic array size parameters:
  | Number of species                 :        2
  | Number of atoms                   :       12
  | Number of lattice vectors         :        3
  | Max. basis fn. angular momentum   :        4
  | Max. atomic/ionic basis occupied n:        5
  | Max. number of basis fn. types    :        3
  | Max. radial fns per species/type  :       10
  | Max. logarithmic grid size        :     1444
  | Max. radial integration grid size :      125
  | Max. angular integration grid size:      434
  | Max. angular grid division number :        8
  | Radial grid for Hartree potential :     1444
  | Number of spin channels           :        1

------------------------------------------------------------
          Reading file control.in.
------------------------------------------------------------
  XC: Using PBE gradient-corrected functionals.
  Using libMBD for calculating MBD and TS energies
  Spin treatment: No spin polarisation.
  Found k-point grid:        11        11         9
  Scalar relativistic treatment of kinetic energy: on-site free-atom approximation to ZORA.
  Max energy increase before discarding BFGS move:   0.100000E-01 eV
  Assuming qualitatively harmonic for steps shorter than   0.150000E-01 A.
  S.C.F. convergence parameters will be adjusted in iteration number     3 of each new s.c.f. cycle.
  Geometry relaxation: Modified BFGS - TRM (trust radius method) for lattice optimization.
  Convergence accuracy for geometry relaxation: Maximum force <   0.100000E-01 eV/A.
 
  Reading configuration options for species Pd                  .
  | Found nuclear charge :  46.0000
  | Found atomic mass :    106.420000000000      amu
  | Found l_max for Hartree potential  :   6
  | Found cutoff potl. onset [A], width [A], scale factor :    4.00000    2.00000    1.00000
  | Threshold for basis-dependent cutoff potential is   0.100000E-03
  | Found data for basic radial integration grid :    62 points, outermost radius =    7.000 A
  | Found multiplier for basic radial grid :   2
  | Found angular grid specification: user-specified.
  | Specified grid contains     6 separate shells.
  | Check grid settings after all constraints further below.
  | Found free-atom valence shell :  5 s   1.000
  | Found free-atom valence shell :  4 p   6.000
  | Found free-atom valence shell :  4 d   9.000
  | Found free-ion valence shell :  5 s   0.000
  | Found free-ion valence shell :  4 p   6.000
  | Found free-ion valence shell :  4 d   8.000
  | Found ionic basis function :  5 p , default cutoff radius.
  | Found hydrogenic basis function :  4 f   8.000
  | Found hydrogenic basis function :  5 g  10.000
  | Found hydrogenic basis function :  3 s   2.600
  | Found hydrogenic basis function :  3 d   2.500
  Species Pd                  : Missing cutoff potential type.
  Defaulting to exp(1/x)/(1-x)^2 type cutoff potential.
  Species Pd: No 'logarithmic' tag. Using default grid for free atom:
  | Default logarithmic grid data [bohr] : 0.1000E-03 0.1000E+03 0.1012E+01
  | Will include ionic basis functions of  2.0-fold positive Pd                   ion.
  Species Pd: On-site basis accuracy parameter (for Gram-Schmidt orthonormalisation) not specified.
  Using default value basis_acc =  0.1000000E-03.
  Species Pd                  : Using default innermost maximum threshold i_radial=  2 for radial functions.
  Species Pd                  : Default cutoff onset for free atom density etc. : 0.40000000E+01 AA.
  Species Pd                  : Basic radial grid will be enhanced according to radial_multiplier =   2, to contain   125 grid points.
 
  Reading configuration options for species Se                  .
  | Found nuclear charge :  34.0000
  | Found atomic mass :    78.9600000000000      amu
  | Found l_max for Hartree potential  :   6
  | Found cutoff potl. onset [A], width [A], scale factor :    4.00000    2.00000    1.00000
  | Threshold for basis-dependent cutoff potential is   0.100000E-03
  | Found data for basic radial integration grid :    55 points, outermost radius =    7.000 A
  | Found multiplier for basic radial grid :   2
  | Found angular grid specification: user-specified.
  | Specified grid contains     5 separate shells.
  | Check grid settings after all constraints further below.
  | Found free-atom valence shell :  4 s   2.000
  | Found free-atom valence shell :  4 p   4.000
  | Found free-atom valence shell :  3 d  10.000
  | Found free-ion valence shell :  4 s   1.000
  | Found free-ion valence shell :  4 p   3.000
  | Found free-ion valence shell :  3 d  10.000
  | Found hydrogenic basis function :  3 d   4.300
  | Found hydrogenic basis function :  2 p   1.600
  | Found hydrogenic basis function :  4 f   7.200
  | Found ionic basis function :  4 s , default cutoff radius.
  Species Se                  : Missing cutoff potential type.
  Defaulting to exp(1/x)/(1-x)^2 type cutoff potential.
  Species Se: No 'logarithmic' tag. Using default grid for free atom:
  | Default logarithmic grid data [bohr] : 0.1000E-03 0.1000E+03 0.1012E+01
  | Will include ionic basis functions of  2.0-fold positive Se                   ion.
  Species Se: On-site basis accuracy parameter (for Gram-Schmidt orthonormalisation) not specified.
  Using default value basis_acc =  0.1000000E-03.
  Species Se                  : Using default innermost maximum threshold i_radial=  2 for radial functions.
  Species Se                  : Default cutoff onset for free atom density etc. : 0.40000000E+01 AA.
  Species Se                  : Basic radial grid will be enhanced according to radial_multiplier =   2, to contain   111 grid points.
 
  Finished reading input file 'control.in'. Consistency checks are next.
 
  MPI_IN_PLACE appears to work with this MPI implementation.
  | Keeping use_mpi_in_place .true. (see manual).
  Target number of points in a grid batch is not set. Defaulting to  100
  Method for grid partitioning is not set. Defaulting to parallel hash+maxmin partitioning.
  Batch size limit is not set. Defaulting to    200
  By default, will store active basis functions for each batch.
  If in need of memory, prune_basis_once .false. can be used to disable this option.
  communication_type for Hartree potential was not specified.
  Defaulting to calc_hartree .
  Defaulting to Pulay charge density mixer.
  Pulay mixer: Number of relevant iterations not set.
  Defaulting to    8 iterations.
  Pulay mixer: Number of initial linear mixing iterations not set.
  Defaulting to    0 iterations.
  Work space size for distributed Hartree potential not set.
  Defaulting to   0.200000E+03 MB.
  Mixing parameter for charge density mixing has not been set.
  Using default: charge_mix_param =     0.0500.
  The mixing parameter will be adjusted in iteration number     3 of each s.c.f. cycle (i.e., each geometry step).
  Algorithm-dependent basis array size parameters:
  | n_max_pulay                         :        8
  Maximum number of self-consistency iterations not provided.
  Presetting  1000 iterations.
  Presetting      1001 iterations before the initial mixing cycle
  is restarted anyway using the sc_init_iter criterion / keyword.
  Presetting a factor      1.000 between actual scf density residual
  and density convergence criterion sc_accuracy_rho below which sc_init_iter
  takes no effect.
 * No s.c.f. convergence criteria (sc_accuracy_*) were provided in control.in.
 * The run will proceed with a reasonable default guess, but please check whether.
 * the s.c.f. cycles seem to take too much or too little time.
  No maximum number of relaxation steps, defaulting to     1000
  Using explicit Hessian from geometry.in.
  Maximum energy tolerance by which TRM/BFGS trajectory may increase over multiple steps:   0.300000E-02
  No trust radius initializer. Defaulting to   0.200000E+00 A.
  Unit cell relaxation: Unit cell will be relaxed fully.
  Unit cell relaxation: Analytical stress will be used.
  Analytical stress will be computed.
  Analytical stress calculation: Only the upper triangle is calculated.
                                 Final output is symmetrized.
  Analytical stress calculation: scf convergence accuracy of stress not set.
                                 Analytical stress self-consistency will not be checked explicitly.
                                 Be sure to set other criteria like sc_accuracy_rho tight enough.
 * Notice: The s.c.f. convergence criterion sc_accuracy_rho was not provided.
 * We used to stop in this case, and ask the user to provide reasonable
 * scf convergence criteria. However, this led some users to employ criteria
 * that led to extremely long run times, e.g., for simple relaxation.
 * We now preset a default value for sc_accuracy_rho if it is not set.
 * You may still wish to check if this setting is too tight or too loose for your needs.
 * Based on n_atoms, FHI-aims chose sc_accuracy_rho =  0.141421E-05 .
  Force calculation: scf convergence accuracy of forces not set.
  Defaulting to 'sc_accuracy_forces not_checked'.
  Handling of forces: Unphysical translation and rotation will be removed from forces.
  No accuracy limit for integral partition fn. given. Defaulting to  0.1000E-14.
  No threshold value for u(r) in integrations given. Defaulting to  0.1000E-05.
  No occupation type (smearing scheme) given. Defaulting to Gaussian broadening, width =  0.1000E-01 eV.
  The width will be adjusted in iteration number     3 of each s.c.f. cycle (i.e., each geometry step).
  S.C.F. convergence parameters will be adjusted in iteration number     3 of the first full s.c.f. cycle only.
  No accuracy for occupation numbers given. Defaulting to  0.1000E-12.
  No threshold value for occupation numbers given. Defaulting to  0.0000E+00.
  No accuracy for fermi level given. Defaulting to  0.1000E-19.
  Maximum # of iterations to find E_F not set. Defaulting to  200.
  Preferred method for the eigenvalue solver ('KS_method') not specified in 'control.in'.
  Defaulting to serial version, LAPACK (via ELSI), since more k-points than CPUs available.
  Will not use alltoall communication since running on < 1024 CPUs.
  Threshold for basis singularities not set.
  Default threshold for basis singularities:  0.1000E-04
  partition_type (choice of integration weights) for integrals was not specified.
  | Using a version of the partition function of Stratmann and coworkers ('stratmann_sparse').
  | At each grid point, the set of atoms used to build the partition table is smoothly restricted to
  | only those atoms whose free-atom density would be non-zero at that grid point.
  Partitioning for Hartree potential was not defined. Using partition_type for integrals.
  | Adjusted default value of keyword multip_moments_threshold to:       0.10000000E-11
  | This value may affect high angular momentum components of the Hartree potential in periodic systems.
  Angular momentum expansion for Kerker preconditioner not set explicitly.
  | Using default value of   0
  No explicit requirement for turning off preconditioner.
  | By default, it will be turned off when the charge convergence reaches
  | sc_accuracy_rho  =   0.141421E-05
  No special mixing parameter while Kerker preconditioner is on.
  Using default: charge_mix_param =     0.0500.
  No q(lm)/r^(l+1) cutoff set for long-range Hartree potential.
  | Using default value of  0.100000E-09 .
  | Verify using the multipole_threshold keyword.
  Defaulting to new monopole extrapolation.
  Density update method: automatic selection selected.
  Using density matrix based charge density update.
  Using density matrix based charge density update.
  Using packed matrix style: index .
  Geometry relaxation: A file "geometry.in.next_step" is written out by default after each step.
  | This file contains the geometry of the current relaxation step as well as
  | the current Hessian matrix needed to restart the relaxation algorithm.
  | If you do not want part or all of this information, use the keywords
  | "write_restart_geometry" or "hessian_to_restart_geometry" to switch the output off.
  Defaulting to use time-reversal symmetry for k-point grid.
  Charge integration errors on the 3D integration grid will be compensated
  by explicit normalization and distribution of residual charges.
  Use the "compensate_multipole_errors" flag to change this behaviour.
------------------------------------------------------------


------------------------------------------------------------
          Reading geometry description geometry.in.
------------------------------------------------------------
  Input structure read successfully.
  The structure contains       12 atoms,  and a total of        456.000 electrons.

  Input geometry:
  | Unit cell:
  |        5.85872691        0.00000000        0.00000000
  |        0.00000000        5.96176912        0.00000000
  |        0.00000000        0.00000000        7.41218780
  | Atomic structure:
  |       Atom                x [A]            y [A]            z [A]
  |    1: Species Pd            2.94260072        0.01136021        0.01282264
  |    2: Species Pd            0.01108061        0.01142823        3.72478188
  |    3: Species Pd            0.01158007        2.99450994        0.01323817
  |    4: Species Pd            2.94309801        2.99456992        3.72436576
  |    5: Species Se            3.59811926        0.71459762        2.99446858
  |    6: Species Se            5.21934049        5.27489725        6.70206589
  |    7: Species Se            0.66651473        2.29185894        4.45308937
  |    8: Species Se            2.28762599        3.69759414        0.74307828
  |    9: Species Se            2.28783772        5.27497338        4.45309760
  |   10: Species Se            0.66675663        0.71457324        0.74325016
  |   11: Species Se            5.21920791        3.69759741        2.99449407
  |   12: Species Se            3.59797748        2.29177106        6.70221376

  Lattice parameters for 3D lattice (in Angstroms) :     5.858727    5.961769    7.412188
  Angle(s) between unit vectors (in degrees)       :    90.000000   90.000000   90.000000

  | The smallest distance between any two atoms is         2.40465142 AA.
  | The first atom of this pair is atom number                      6 .
  | The second atom of this pair is atom number                    10 .
  | Wigner-Seitz cell of the first atom image           0     0     0 .
  | (The Wigner-Seitz cell of the second atom is 0 0 0  by definition.)

  Symmetry information by spglib:
  | Precision set to  0.1E-04
  | Number of Operations  : 1
  | Space group           : 1
  | International         : P1
  | Schoenflies           : C1^1

  Quantities derived from the lattice vectors:
  | Reciprocal lattice vector 1:  1.072449  0.000000  0.000000
  | Reciprocal lattice vector 2:  0.000000  1.053913  0.000000
  | Reciprocal lattice vector 3:  0.000000  0.000000  0.847683
  | Unit cell volume                               :   0.258896E+03  A^3

  Range separation radius for Ewald summation (hartree_convergence_parameter):      3.99663219 bohr.

  Fractional coordinates:
                         L1                L2                L3
       atom_frac         0.50225941        0.00190551        0.00172994  Pd
       atom_frac         0.00189130        0.00191692        0.50252125  Pd
       atom_frac         0.00197655        0.50228546        0.00178600  Pd
       atom_frac         0.50234429        0.50229552        0.50246511  Pd
       atom_frac         0.61414695        0.11986335        0.40399254  Se
       atom_frac         0.89086598        0.88478724        0.90419537  Se
       atom_frac         0.11376443        0.38442598        0.60077935  Se
       atom_frac         0.39046469        0.62021760        0.10025087  Se
       atom_frac         0.39050083        0.88480001        0.60078046  Se
       atom_frac         0.11380572        0.11985926        0.10027406  Se
       atom_frac         0.89084335        0.62021815        0.40399598  Se
       atom_frac         0.61412275        0.38441124        0.90421532  Se

  Number of empty states per atom not set in control.in - providing a guess from actual geometry.
  | Total number of empty states used during s.c.f. cycle:       66
  If you use a very high smearing, use empty_states (per atom!) in control.in to increase this value.

  Structure-dependent array size parameters: 
  | Maximum number of distinct radial functions  :       27
  | Maximum number of basis functions            :      468
  | Number of Kohn-Sham states (occupied + empty):      294
------------------------------------------------------------

------------------------------------------------------------
          Preparing all fixed parts of the calculation.
------------------------------------------------------------
  Determining machine precision:
    2.225073858507201E-308
  Setting up grids for atomic and cluster calculations.

  Creating wave function, potential, and density for free atoms.

  Species: Pd

  List of occupied orbitals and eigenvalues:
    n    l              occ      energy [Ha]    energy [eV]
    1    0           2.0000      -913.269104    -24851.3168
    2    0           2.0000      -130.434372     -3549.2998
    3    0           2.0000       -23.521804      -640.0609
    4    0           2.0000        -3.256918       -88.6253
    5    0           1.0000        -0.157260        -4.2793
    2    1           6.0000      -116.910756     -3181.3035
    3    1           6.0000       -19.103344      -519.8284
    4    1           6.0000        -1.998052       -54.3697
    3    2          10.0000       -12.098182      -329.2083
    4    2           9.0000        -0.243389        -6.6230


  Species: Se

  List of occupied orbitals and eigenvalues:
    n    l              occ      energy [Ha]    energy [eV]
    1    0           2.0000      -466.337810    -12689.6975
    2    0           2.0000       -59.202598     -1610.9847
    3    0           2.0000        -7.847116      -213.5309
    4    0           2.0000        -0.634372       -17.2621
    2    1           6.0000       -52.061107     -1416.6548
    3    1           6.0000        -5.620941      -152.9536
    4    1           4.0000        -0.238469        -6.4891
    3    2          10.0000        -1.951949       -53.1152

  Creating fixed part of basis set: Ionic, confined, hydrogenic.
 
  Pd                   ion:

  List of free ionic orbitals and eigenvalues:
    n    l      energy [Ha]    energy [eV]
    1    0      -914.099884    -24873.9234
    2    0      -131.248265     -3571.4470
    3    0       -24.332473      -662.1203
    4    0        -4.059276      -110.4585
    2    1      -117.724296     -3203.4411
    3    1       -19.913908      -541.8850
    4    1        -2.795328       -76.0648
    3    2       -12.908733      -351.2645
    4    2        -1.004248       -27.3270


  List of ionic basis orbitals and eigenvalues:
    n    l      energy [Ha]    energy [eV]    outer radius [A]
    5    1        -0.516938       -14.0666       5.427025

 
  Pd                   hydrogenic:
 
  List of hydrogenic basis orbitals: 
    n    l      effective z      eigenvalue [eV]  inner max. [A]     outer max. [A]     outer radius [A]   
    4    3         8.000000       -54.4226           1.054686           1.054686           4.629581
    5    4        10.000000       -54.4226           1.330451           1.330451           5.043202
    3    0         2.600000        -9.8948           0.150992           2.606197           5.493778
    3    2         2.500000        -9.3396           1.873517           1.873517           5.493778
 
 
  Se                   ion:

  List of free ionic orbitals and eigenvalues:
    n    l      energy [Ha]    energy [eV]
    1    0      -467.261007    -12714.8189
    2    0       -60.104893     -1635.5374
    3    0        -8.743714      -237.9286
    4    0        -1.414053       -38.4783
    2    1       -52.964156     -1441.2280
    3    1        -6.516916      -177.3343
    4    1        -0.961869       -26.1738
    3    2        -2.844511       -77.4031


  List of ionic basis orbitals and eigenvalues:
    n    l      energy [Ha]    energy [eV]    outer radius [A]
    4    0        -1.414046       -38.4782       4.083166

 
  Se                   hydrogenic:
 
  List of hydrogenic basis orbitals: 
    n    l      effective z      eigenvalue [eV]  inner max. [A]     outer max. [A]     outer radius [A]   
    3    2         4.300000       -27.9518           1.103845           1.103845           5.278265
    2    1         1.600000        -8.6828           1.326010           1.326010           5.475439
    4    3         7.200000       -44.0822           1.173422           1.173422           4.965294
 

  Adding cutoff potential to free-atom effective potential.
  Creating atomic-like basis functions for current effective potential.

  Species Pd                  :

  List of atomic basis orbitals and eigenvalues:
    n    l      energy [Ha]    energy [eV]    outer radius [A]
    1    0      -913.269104    -24851.3168       0.223280
    2    0      -130.434372     -3549.2998       0.615909
    3    0       -23.521804      -640.0609       1.414312
    4    0        -3.256918       -88.6253       3.581357
    5    0        -0.157260        -4.2793       5.427025
    2    1      -116.910756     -3181.3035       0.631154
    3    1       -19.103344      -519.8284       1.540671
    4    1        -1.998052       -54.3697       4.408641
    3    2       -12.098182      -329.2083       1.806051
    4    2        -0.243389        -6.6230       5.361084


  Species Se                  :

  List of atomic basis orbitals and eigenvalues:
    n    l      energy [Ha]    energy [eV]    outer radius [A]
    1    0      -466.337810    -12689.6975       0.309561
    2    0       -59.202598     -1610.9847       0.885812
    3    0        -7.847116      -213.5309       2.355489
    4    0        -0.634372       -17.2621       5.214131
    2    1       -52.061107     -1416.6548       0.907737
    3    1        -5.620941      -152.9536       2.694529
    4    1        -0.238469        -6.4891       5.408909
    3    2        -1.951949       -53.1152       4.083166

  Assembling full basis from fixed parts.
  | Species Pd :   atomic orbital   1 s accepted.
  | Species Pd :   atomic orbital   2 s accepted.
  | Species Pd :   atomic orbital   3 s accepted.
  | Species Pd :   atomic orbital   4 s accepted.
  | Species Pd :   atomic orbital   5 s accepted.
  | Species Pd :    hydro orbital   3 s accepted.
  | Species Pd :   atomic orbital   2 p accepted.
  | Species Pd :   atomic orbital   3 p accepted.
  | Species Pd :   atomic orbital   4 p accepted.
  | Species Pd :    ionic orbital   5 p accepted.
  | Species Pd :   atomic orbital   3 d accepted.
  | Species Pd :   atomic orbital   4 d accepted.
  | Species Pd :    hydro orbital   3 d accepted.
  | Species Pd :    hydro orbital   4 f accepted.
  | Species Pd :    hydro orbital   5 g accepted.
  | Species Se :   atomic orbital   1 s accepted.
  | Species Se :   atomic orbital   2 s accepted.
  | Species Se :   atomic orbital   3 s accepted.
  | Species Se :    ionic orbital   4 s accepted.
  | Species Se :   atomic orbital   4 s accepted.
  | Species Se :   atomic orbital   2 p accepted.
  | Species Se :   atomic orbital   3 p accepted.
  | Species Se :   atomic orbital   4 p accepted.
  | Species Se :    hydro orbital   2 p accepted.
  | Species Se :   atomic orbital   3 d accepted.
  | Species Se :    hydro orbital   3 d accepted.
  | Species Se :    hydro orbital   4 f accepted.
 
  Basis size parameters after reduction:
  | Total number of radial functions:       27
  | Total number of basis functions :      468
 
  Per-task memory consumption for arrays in subroutine allocate_ext:
  |           9.993344MB.
  Testing on-site integration grid accuracy.
  |  Species  Function  <phi|h_atom|phi> (log., in eV)  <phi|h_atom|phi> (rad., in eV)
           1        1             -24851.3167505682             -24851.3148165635
           1        2              -3549.2998457785              -3549.2998098031
           1        3               -640.0608571327               -640.0608534886
           1        4                -88.6252603131                -88.6252593316
           1        5                 -4.2849374515                 -4.2849400622
           1        6                  4.9432123540                  4.9432188418
           1        7              -3181.3035399559              -3181.3035364574
           1        8               -519.8284281886               -519.8284264063
           1        9                -54.3697495804                -54.3697489261
           1       10                  0.8628369484                  0.8628370487
           1       11               -329.2082917394               -329.2082912864
           1       12                 -6.6230267036                 -6.6230265076
           1       13                  5.4924295291                  5.4924115607
           1       14                 25.0740861942                 25.0740861175
           1       15                 38.8271273823                 38.8271278029
           2       16             -12689.6974611609             -12689.6967666984
           2       17              -1610.9846578580              -1610.9846472470
           2       18               -213.5308789869               -213.5308777267
           2       19                -17.0464428502                -17.0464426496
           2       20                  6.7356859379                  6.7356842047
           2       21              -1416.6548010133              -1416.6548002108
           2       22               -152.9535734377               -152.9535727493
           2       23                 -6.4896265677                 -6.4896303794
           2       24                  5.2703037283                  5.2701679583
           2       25                -53.1152220964                -53.1152219035
           2       26                  7.6186674138                  7.6186665630
           2       27                 23.1072799052                 23.1072803137

  Preparing densities etc. for the partition functions (integrals / Hartree potential).

  Preparations completed.
  max(cpu_time)          :      0.554 s.
  Wall clock time (cpu1) :      0.641 s.
------------------------------------------------------------

------------------------------------------------------------
          Begin self-consistency loop: Initialization.

          Date     :  20200420, Time     :  204040.403
------------------------------------------------------------

  Initializing index lists of integration centers etc. from given atomic structure:
  Mapping all atomic coordinates to central unit cell.

  Initializing the k-points
  Using symmetry for reducing the k-points
  | k-points reduced from:     1089 to      545
  | Number of k-points                             :       545
  The eigenvectors in the calculations are COMPLEX.
  | K-points in task   0:        22
  | K-points in task   1:        23
  | K-points in task   2:        23
  | K-points in task   3:        23
  | K-points in task   4:        23
  | K-points in task   5:        23
  | K-points in task   6:        23
  | K-points in task   7:        23
  | K-points in task   8:        23
  | K-points in task   9:        23
  | K-points in task  10:        23
  | K-points in task  11:        23
  | K-points in task  12:        23
  | K-points in task  13:        23
  | K-points in task  14:        23
  | K-points in task  15:        23
  | K-points in task  16:        23
  | K-points in task  17:        23
  | K-points in task  18:        22
  | K-points in task  19:        22
  | K-points in task  20:        22
  | K-points in task  21:        22
  | K-points in task  22:        22
  | K-points in task  23:        22
  | Number of basis functions in the Hamiltonian integrals :      5572
  | Number of basis functions in a single unit cell        :       468
  | Number of centers in hartree potential         :      1325
  | Number of centers in hartree multipole         :       769
  | Number of centers in electron density summation:       596
  | Number of centers in basis integrals           :       640
  | Number of centers in integrals                 :       236
  | Number of centers in hamiltonian               :       596
  | Consuming        732 KiB for k_phase.
  | Number of super-cells (origin) [n_cells]                     :         567
  | Number of super-cells (after PM_index) [n_cells]             :          86
  | Number of super-cells in hamiltonian [n_cells_in_hamiltonian]:          86
  | Size of matrix packed + index [n_hamiltonian_matrix_size] :     1296075

  Initializing relaxation algorithms.
  | Estimated reciprocal-space cutoff momentum G_max:         2.43040172 bohr^-1 .
  | Reciprocal lattice points for long-range Hartree potential:     426
  Partitioning the integration grid into batches with parallel hashing+maxmin method.
  | Number of batches:     4183
  | Maximal batch size:     110
  | Minimal batch size:      49
  | Average batch size:      91.833
  | Standard deviation of batch sizes:      11.450

  Integration load balanced across    24 MPI tasks.
  Work distribution over tasks is as follows:
  Task     0 has      16030 integration points.
  Task     1 has      15960 integration points.
  Task     2 has      16019 integration points.
  Task     3 has      16024 integration points.
  Task     4 has      16003 integration points.
  Task     5 has      15996 integration points.
  Task     6 has      15995 integration points.
  Task     7 has      16031 integration points.
  Task     8 has      16002 integration points.
  Task     9 has      15959 integration points.
  Task    10 has      15996 integration points.
  Task    11 has      16016 integration points.
  Task    12 has      16023 integration points.
  Task    13 has      15959 integration points.
  Task    14 has      16021 integration points.
  Task    15 has      16033 integration points.
  Task    16 has      16026 integration points.
  Task    17 has      16030 integration points.
  Task    18 has      15971 integration points.
  Task    19 has      16024 integration points.
  Task    20 has      15999 integration points.
  Task    21 has      16026 integration points.
  Task    22 has      16025 integration points.
  Task    23 has      15968 integration points.
  Initializing partition tables, free-atom densities, potentials, etc. across the integration grid (initialize_grid_storage).
  | initialize_grid_storage: Actual outermost partition radius vs. multipole_radius_free
  | (-- VB: in principle, multipole_radius_free should be larger, hence this output)
  | Species        1: Confinement radius =              6.000000000000000 AA, multipole_radius_free =              6.058219618167466 AA.
  | Species        1: outer_partition_radius set to              6.058219618167466 AA .
  | Species        2: Confinement radius =              6.000000000000000 AA, multipole_radius_free =              6.037996416842453 AA.
  | Species        2: outer_partition_radius set to              6.037996416842453 AA .
  | The sparse table of interatomic distances needs       2904.04 kbyte instead of      3276.80 kbyte of memory.
  | Net number of integration points:   384136
  | of which are non-zero points    :   322053
  | Numerical average free-atom electrostatic potential    :    -17.10510575 eV
  Renormalizing the initial density to the exact electron count on the 3D integration grid.
  | Initial density: Formal number of electrons (from input files) :     456.0000000000
  | Integrated number of electrons on 3D grid     :     456.0000603062
  | Charge integration error                      :       0.0000603062
  | Normalization factor for density and gradient :       0.9999998677
  Renormalizing the free-atom superposition density to the exact electron count on the 3D integration grid.
  | Formal number of electrons (from input files) :     456.0000000000
  | Integrated number of electrons on 3D grid     :     456.0000603062
  | Charge integration error                      :       0.0000603062
  | Normalization factor for density and gradient :       0.9999998677
  Obtaining max. number of non-zero basis functions in each batch (get_n_compute_maxes).
  | Maximal number of non-zero basis functions:     1023 in task     0
  | Maximal number of non-zero basis functions:     1035 in task     1
  | Maximal number of non-zero basis functions:     1030 in task     2
  | Maximal number of non-zero basis functions:     1028 in task     3
  | Maximal number of non-zero basis functions:     1023 in task     4
  | Maximal number of non-zero basis functions:     1035 in task     5
  | Maximal number of non-zero basis functions:     1012 in task     6
  | Maximal number of non-zero basis functions:     1029 in task     7
  | Maximal number of non-zero basis functions:     1018 in task     8
  | Maximal number of non-zero basis functions:     1013 in task     9
  | Maximal number of non-zero basis functions:     1030 in task    10
  | Maximal number of non-zero basis functions:     1026 in task    11
  | Maximal number of non-zero basis functions:     1028 in task    12
  | Maximal number of non-zero basis functions:     1029 in task    13
  | Maximal number of non-zero basis functions:     1042 in task    14
  | Maximal number of non-zero basis functions:     1023 in task    15
  | Maximal number of non-zero basis functions:     1049 in task    16
  | Maximal number of non-zero basis functions:     1040 in task    17
  | Maximal number of non-zero basis functions:     1021 in task    18
  | Maximal number of non-zero basis functions:     1026 in task    19
  | Maximal number of non-zero basis functions:     1026 in task    20
  | Maximal number of non-zero basis functions:     1025 in task    21
  | Maximal number of non-zero basis functions:     1021 in task    22
  | Maximal number of non-zero basis functions:     1027 in task    23
  Allocating       46.189 MB for KS_eigenvector_complex
  Integrating Hamiltonian matrix: batch-based integration.
  Time summed over all CPUs for integration: real work       64.010 s, elapsed       64.701 s
  Integrating overlap matrix.
  Time summed over all CPUs for integration: real work       46.281 s, elapsed       46.903 s
  Decreasing sparse matrix size:
  | Tolerance:  0.1000E-12
  Hamiltonian matrix
  | Array has  1120988 nonzero elements out of  1296075 elements
  | Sparsity factor is 0.135
  Overlap matrix
  | Array has  1034697 nonzero elements out of  1296075 elements
  | Sparsity factor is 0.202
  New size of hamiltonian matrix:     1121064

  Updating Kohn-Sham eigenvalues and eigenvectors using ELSI and the (modified) LAPACK eigensolver.
  Singularity check in k-point 24, task 0 (analysis for other k-points/tasks may follow below):
  Overlap matrix is not singular
  | Lowest and highest eigenvalues :  0.6769E-03,  0.7271E+01
  Finished singularity check of overlap matrix
  | Time :     0.076 s
  Starting LAPACK eigensolver
  Finished Cholesky decomposition
  | Time :     0.018 s
  Finished transformation to standard eigenproblem
  | Time :     0.021 s
  Finished solving standard eigenproblem
  | Time :     0.072 s
  Finished back-transformation of eigenvectors
  | Time :     0.008 s

  Obtaining occupation numbers and chemical potential using ELSI.
  | Chemical potential (Fermi level):    -4.64402577 eV
  Writing Kohn-Sham eigenvalues.
  K-point:       1 at    0.000000    0.000000    0.000000 (in units of recip. lattice)

  State    Occupation    Eigenvalue [Ha]    Eigenvalue [eV]
      1       2.00000        -913.279476       -24851.59899
      2       2.00000        -913.279467       -24851.59872
      3       2.00000        -913.279463       -24851.59863
      4       2.00000        -913.279388       -24851.59658
      5       2.00000        -466.350314       -12690.03769
      6       2.00000        -466.350276       -12690.03668
      7       2.00000        -466.350236       -12690.03559
      8       2.00000        -466.350232       -12690.03548
      9       2.00000        -466.350232       -12690.03547
     10       2.00000        -466.350219       -12690.03511
     11       2.00000        -466.350206       -12690.03477
     12       2.00000        -466.350186       -12690.03423
     13       2.00000        -130.445060        -3549.59069
     14       2.00000        -130.445051        -3549.59043
     15       2.00000        -130.445047        -3549.59033
     16       2.00000        -130.444971        -3549.58826
     17       2.00000        -116.921468        -3181.59503
     18       2.00000        -116.921460        -3181.59479
     19       2.00000        -116.921459        -3181.59477
     20       2.00000        -116.921455        -3181.59467
     21       2.00000        -116.921450        -3181.59452
     22       2.00000        -116.921446        -3181.59444
     23       2.00000        -116.921406        -3181.59334
     24       2.00000        -116.921397        -3181.59308
     25       2.00000        -116.921393        -3181.59298
     26       2.00000        -116.921379        -3181.59260
     27       2.00000        -116.921370        -3181.59236
     28       2.00000        -116.921317        -3181.59092
     29       2.00000         -59.215528        -1611.33649
     30       2.00000         -59.215490        -1611.33546
     31       2.00000         -59.215449        -1611.33435
     32       2.00000         -59.215445        -1611.33424
     33       2.00000         -59.215445        -1611.33424
     34       2.00000         -59.215431        -1611.33387
     35       2.00000         -59.215418        -1611.33352
     36       2.00000         -59.215398        -1611.33297
     37       2.00000         -52.074043        -1417.00681
     38       2.00000         -52.074020        -1417.00617
     39       2.00000         -52.074006        -1417.00580
     40       2.00000         -52.073981        -1417.00512
     41       2.00000         -52.073971        -1417.00484
     42       2.00000         -52.073965        -1417.00469
     43       2.00000         -52.073961        -1417.00457
     44       2.00000         -52.073960        -1417.00455
     45       2.00000         -52.073947        -1417.00420
     46       2.00000         -52.073940        -1417.00400
     47       2.00000         -52.073937        -1417.00393
     48       2.00000         -52.073936        -1417.00390
     49       2.00000         -52.073934        -1417.00384
     50       2.00000         -52.073933        -1417.00382
     51       2.00000         -52.073922        -1417.00352
     52       2.00000         -52.073914        -1417.00330
     53       2.00000         -52.073910        -1417.00318
     54       2.00000         -52.073893        -1417.00272
     55       2.00000         -52.073890        -1417.00263
     56       2.00000         -52.073889        -1417.00261
     57       2.00000         -52.073889        -1417.00261
     58       2.00000         -52.073875        -1417.00224
     59       2.00000         -52.073863        -1417.00190
     60       2.00000         -52.073843        -1417.00136
     61       2.00000         -23.533253         -640.37239
     62       2.00000         -23.533243         -640.37211
     63       2.00000         -23.533239         -640.37201
     64       2.00000         -23.533158         -640.36980
     65       2.00000         -19.115046         -520.14685
     66       2.00000         -19.115035         -520.14657
     67       2.00000         -19.115029         -520.14642
     68       2.00000         -19.114958         -520.14448
     69       2.00000         -19.114948         -520.14420
     70       2.00000         -19.114947         -520.14417
     71       2.00000         -19.114945         -520.14412
     72       2.00000         -19.114862         -520.14185
     73       2.00000         -19.114430         -520.13010
     74       2.00000         -19.114420         -520.12984
     75       2.00000         -19.114417         -520.12974
     76       2.00000         -19.114338         -520.12760
     77       2.00000         -12.109852         -329.52584
     78       2.00000         -12.109841         -329.52554
     79       2.00000         -12.109837         -329.52544
     80       2.00000         -12.109817         -329.52488
     81       2.00000         -12.109806         -329.52458
     82       2.00000         -12.109802         -329.52448
     83       2.00000         -12.109755         -329.52319
     84       2.00000         -12.109720         -329.52224
     85       2.00000         -12.109476         -329.51561
     86       2.00000         -12.109466         -329.51535
     87       2.00000         -12.109461         -329.51521
     88       2.00000         -12.109420         -329.51409
     89       2.00000         -12.109410         -329.51381
     90       2.00000         -12.109407         -329.51374
     91       2.00000         -12.109382         -329.51306
     92       2.00000         -12.109338         -329.51186
     93       2.00000         -12.109329         -329.51160
     94       2.00000         -12.109327         -329.51155
     95       2.00000         -12.109325         -329.51151
     96       2.00000         -12.109246         -329.50935
     97       2.00000          -7.861839         -213.93151
     98       2.00000          -7.861794         -213.93029
     99       2.00000          -7.861748         -213.92904
    100       2.00000          -7.861746         -213.92901
    101       2.00000          -7.861743         -213.92892
    102       2.00000          -7.861728         -213.92852
    103       2.00000          -7.861713         -213.92811
    104       2.00000          -7.861692         -213.92751
    105       2.00000          -5.636239         -153.36987
    106       2.00000          -5.636202         -153.36887
    107       2.00000          -5.636155         -153.36758
    108       2.00000          -5.636149         -153.36742
    109       2.00000          -5.636142         -153.36723
    110       2.00000          -5.636131         -153.36694
    111       2.00000          -5.636112         -153.36640
    112       2.00000          -5.636092         -153.36585
    113       2.00000          -5.635997         -153.36328
    114       2.00000          -5.635946         -153.36191
    115       2.00000          -5.635893         -153.36046
    116       2.00000          -5.635890         -153.36037
    117       2.00000          -5.635880         -153.36011
    118       2.00000          -5.635860         -153.35954
    119       2.00000          -5.635819         -153.35844
    120       2.00000          -5.635807         -153.35811
    121       2.00000          -5.635333         -153.34522
    122       2.00000          -5.635289         -153.34401
    123       2.00000          -5.635250         -153.34294
    124       2.00000          -5.635244         -153.34280
    125       2.00000          -5.635243         -153.34276
    126       2.00000          -5.635230         -153.34240
    127       2.00000          -5.635219         -153.34212
    128       2.00000          -5.635196         -153.34150
    129       2.00000          -3.273898          -89.08729
    130       2.00000          -3.273883          -89.08689
    131       2.00000          -3.273877          -89.08674
    132       2.00000          -3.273759          -89.08352
    133       2.00000          -2.020162          -54.97140
    134       2.00000          -2.020150          -54.97107
    135       2.00000          -2.020108          -54.96994
    136       2.00000          -2.019973          -54.96626
    137       2.00000          -2.019157          -54.94406
    138       2.00000          -2.019155          -54.94400
    139       2.00000          -2.019112          -54.94284
    140       2.00000          -2.018977          -54.93917
    141       2.00000          -2.013025          -54.77719
    142       2.00000          -2.013019          -54.77703
    143       2.00000          -2.013013          -54.77687
    144       2.00000          -2.012908          -54.77401
    145       2.00000          -1.969248          -53.58596
    146       2.00000          -1.969180          -53.58411
    147       2.00000          -1.969136          -53.58292
    148       2.00000          -1.969110          -53.58220
    149       2.00000          -1.968187          -53.55709
    150       2.00000          -1.968143          -53.55589
    151       2.00000          -1.968097          -53.55466
    152       2.00000          -1.968078          -53.55413
    153       2.00000          -1.967746          -53.54508
    154       2.00000          -1.967725          -53.54451
    155       2.00000          -1.967680          -53.54330
    156       2.00000          -1.967665          -53.54290
    157       2.00000          -1.967616          -53.54156
    158       2.00000          -1.967587          -53.54076
    159       2.00000          -1.967538          -53.53943
    160       2.00000          -1.967529          -53.53918
    161       2.00000          -1.967330          -53.53379
    162       2.00000          -1.967298          -53.53289
    163       2.00000          -1.967288          -53.53263
    164       2.00000          -1.967266          -53.53204
    165       2.00000          -1.967251          -53.53162
    166       2.00000          -1.967241          -53.53134
    167       2.00000          -1.967218          -53.53072
    168       2.00000          -1.967217          -53.53070
    169       2.00000          -1.967195          -53.53010
    170       2.00000          -1.967192          -53.53002
    171       2.00000          -1.967177          -53.52962
    172       2.00000          -1.967168          -53.52936
    173       2.00000          -1.967145          -53.52874
    174       2.00000          -1.967139          -53.52856
    175       2.00000          -1.967132          -53.52838
    176       2.00000          -1.967115          -53.52793
    177       2.00000          -1.966668          -53.51576
    178       2.00000          -1.966641          -53.51502
    179       2.00000          -1.966603          -53.51399
    180       2.00000          -1.966592          -53.51369
    181       2.00000          -1.966315          -53.50615
    182       2.00000          -1.966294          -53.50557
    183       2.00000          -1.966252          -53.50443
    184       2.00000          -1.966246          -53.50429
    185       2.00000          -0.759509          -20.66728
    186       2.00000          -0.740238          -20.14291
    187       2.00000          -0.720394          -19.60292
    188       2.00000          -0.718727          -19.55755
    189       2.00000          -0.652653          -17.75959
    190       2.00000          -0.640742          -17.43548
    191       2.00000          -0.639501          -17.40171
    192       2.00000          -0.627460          -17.07405
    193       2.00000          -0.418256          -11.38132
    194       2.00000          -0.410486          -11.16989
    195       2.00000          -0.389677          -10.60365
    196       2.00000          -0.376292          -10.23943
    197       2.00000          -0.370778          -10.08937
    198       2.00000          -0.369378          -10.05127
    199       2.00000          -0.366211           -9.96510
    200       2.00000          -0.365983           -9.95889
    201       2.00000          -0.364339           -9.91416
    202       2.00000          -0.362656           -9.86836
    203       2.00000          -0.361490           -9.83664
    204       2.00000          -0.351642           -9.56866
    205       2.00000          -0.342267           -9.31356
    206       2.00000          -0.331039           -9.00804
    207       2.00000          -0.325019           -8.84423
    208       2.00000          -0.317102           -8.62877
    209       2.00000          -0.316651           -8.61652
    210       2.00000          -0.305876           -8.32332
    211       2.00000          -0.288608           -7.85343
    212       2.00000          -0.286423           -7.79397
    213       2.00000          -0.285107           -7.75815
    214       2.00000          -0.279945           -7.61769
    215       2.00000          -0.279191           -7.59717
    216       2.00000          -0.277200           -7.54299
    217       2.00000          -0.276098           -7.51301
    218       2.00000          -0.275568           -7.49859
    219       2.00000          -0.273691           -7.44750
    220       2.00000          -0.270273           -7.35449
    221       2.00000          -0.265528           -7.22539
    222       2.00000          -0.264027           -7.18453
    223       2.00000          -0.263607           -7.17312
    224       2.00000          -0.258090           -7.02298
    225       2.00000          -0.223901           -6.09266
    226       2.00000          -0.214919           -5.84824
    227       2.00000          -0.212712           -5.78818
    228       0.00000          -0.163561           -4.45071
    229       0.00000          -0.152853           -4.15934
    230       0.00000          -0.135092           -3.67604
    231       0.00000          -0.129815           -3.53245
    232       0.00000          -0.128255           -3.49000
    233       0.00000          -0.125683           -3.42002
    234       0.00000          -0.115408           -3.14040
    235       0.00000          -0.115066           -3.13109
    236       0.00000          -0.082247           -2.23806
    237       0.00000          -0.037289           -1.01469
    238       0.00000          -0.029739           -0.80925
    239       0.00000          -0.001581           -0.04301
    240       0.00000           0.023170            0.63050
    241       0.00000           0.026191            0.71268
    242       0.00000           0.027986            0.76154
    243       0.00000           0.058187            1.58336
    244       0.00000           0.089463            2.43441
    245       0.00000           0.101495            2.76183
    246       0.00000           0.111560            3.03570
    247       0.00000           0.118407            3.22202
    248       0.00000           0.123107            3.34992
    249       0.00000           0.124685            3.39285
    250       0.00000           0.125376            3.41165
    251       0.00000           0.138027            3.75590
    252       0.00000           0.152034            4.13706
    253       0.00000           0.159580            4.34239
    254       0.00000           0.170323            4.63472
    255       0.00000           0.176823            4.81160
    256       0.00000           0.189520            5.15710
    257       0.00000           0.192262            5.23173
    258       0.00000           0.199443            5.42711
    259       0.00000           0.220484            5.99966
    260       0.00000           0.231157            6.29010
    261       0.00000           0.247507            6.73500
    262       0.00000           0.257923            7.01844
    263       0.00000           0.267426            7.27704
    264       0.00000           0.279937            7.61746
    265       0.00000           0.281227            7.65258
[...]
  |                x                y                z                |
  |                                                                   |
  |  x        -0.00012943      -0.00000460      -0.00001637           |
  |  y        -0.00000460       0.00006071      -0.00000174           |
  |  z        -0.00001637      -0.00000174      -0.00003448           |
  |                                                                   |
  |  Pressure:       0.00003440   [eV/A**3]                           |
  |                                                                   |
  +-------------------------------------------------------------------+

 * Warning: Stress tensor is anisotropic. Be aware that pressure is an isotropic quantity.


  Leaving Libmbd.

  Timings for VdW correction (Tkatchenko-Scheffler 2009 or later):
  | CPU time:        7.344 s, Wall clock time:        7.345 s.
  Removing unitary transformations (pure translations, rotations) from forces on atoms.
  Atomic forces before filtering:
  | Net force on center of mass :   0.465324E-06  0.448328E-05 -0.627688E-05 eV/A
  Atomic forces after filtering:
  | Net force on center of mass :  -0.522674E-18 -0.104535E-17  0.348449E-18 eV/A

  Energy and forces in a compact form:
  | Total energy uncorrected      :         -0.108791111360822E+07 eV
  | Total energy corrected        :         -0.108791111502527E+07 eV  <-- do not rely on this value for anything but (periodic) metals
  | Electronic free energy        :         -0.108791111644231E+07 eV
  Total atomic forces (unitary forces cleaned) [eV/Ang]:
  |    1          0.565892422242372E-03         -0.225297899211893E-02          0.777910678793824E-03
  |    2         -0.128498006389088E-03          0.185344674774139E-03         -0.264934546157835E-03
  |    3         -0.187773330473220E-02         -0.147420563546040E-02          0.633504975133108E-03
  |    4         -0.260954249438220E-03          0.348214555571634E-03         -0.295589066598327E-03
  |    5         -0.102237360442278E-03         -0.538680855381323E-03          0.109503644080566E-03
  |    6         -0.187798275537400E-02          0.162987908461937E-02         -0.821736981474803E-03
  |    7          0.830933688905309E-03          0.361824336094124E-03         -0.766295475501085E-04
  |    8          0.705011493825428E-03          0.190423106698210E-02          0.298996518084528E-03
  |    9         -0.235492016042317E-03         -0.155373204146218E-03          0.207351257492618E-03
  |   10          0.303779227786594E-02         -0.821573156252119E-04         -0.246846139980926E-04
  |   11         -0.150066171142848E-03         -0.254732471900612E-03          0.381981882951741E-03
  |   12         -0.506666019278095E-03          0.328634756591334E-03         -0.925674200757218E-03

  ------------------------------------ 
  Start decomposition of the XC Energy 
  ------------------------------------ 
  X and C from original XC functional choice 
  Hartree-Fock Energy :          0.000000000 Ha              0.000000000 eV
  X Energy            :      -1261.087598056 Ha         -34315.939518888 eV
  C Energy            :        -23.239504725 Ha           -632.379098662 eV
  Total XC Energy     :      -1284.327102781 Ha         -34948.318617549 eV
  ------------------------------------ 
  LDA X and C from self-consistent density 
  X Energy LDA        :      -1197.521039364 Ha         -32586.205448973 eV
  C Energy LDA        :        -42.068697146 Ha          -1144.747493459 eV
  ------------------------------------ 
  End decomposition of the XC Energy 
  ------------------------------------ 

------------------------------------------------------------
  Relaxation / MD: End force evaluation.       :  max(cpu_time)    wall_clock(cpu1)
  | Time for this force evaluation             :      351.416 s         351.711 s

------------------------------------------------------------
  Geometry optimization: Attempting to predict improved coordinates.

  +-------------------------------------------------------------------+
  | Generalized derivatives on lattice vectors [eV/A]                 |
  +-------------------------------------------------------------------+
  |lattice_vector      -0.00573822      -0.00020384      -0.00072580  |
  |lattice_vector      -0.00020034       0.00264515      -0.00007568  |
  |lattice_vector      -0.00057169      -0.00006066      -0.00120417  |
  +-------------------------------------------------------------------+
  | Forces on lattice vectors cleaned from atomic contributions [eV/A]|
  +-------------------------------------------------------------------+
  |lattice_vector       0.00573822       0.00020384       0.00072580  |
  |lattice_vector       0.00020034      -0.00264515       0.00007568  |
  |lattice_vector       0.00057169       0.00006066       0.00120417  |
  +-------------------------------------------------------------------+
  Symmetrized total atomic cartesian forces [eV/Ang]:
  |   1     0.5658924222E-03    -0.2252978992E-02     0.7779106788E-03
  |   2    -0.1284980064E-03     0.1853446748E-03    -0.2649345462E-03
  |   3    -0.1877733305E-02    -0.1474205635E-02     0.6335049751E-03
  |   4    -0.2609542494E-03     0.3482145556E-03    -0.2955890666E-03
  |   5    -0.1022373604E-03    -0.5386808554E-03     0.1095036441E-03
  |   6    -0.1877982755E-02     0.1629879085E-02    -0.8217369815E-03
  |   7     0.8309336889E-03     0.3618243361E-03    -0.7662954755E-04
  |   8     0.7050114938E-03     0.1904231067E-02     0.2989965181E-03
  |   9    -0.2354920160E-03    -0.1553732041E-03     0.2073512575E-03
  |  10     0.3037792278E-02    -0.8215731563E-04    -0.2468461400E-04
  |  11    -0.1500661711E-03    -0.2547324719E-03     0.3819818830E-03
  |  12    -0.5066660193E-03     0.3286347566E-03    -0.9256742008E-03
  +-------------------------------------------------------------------+
  | Symmetrized forces on lattice vectors cleaned from symmetrized
  | atomic contributions [eV/A]|
  +-------------------------------------------------------------------+
  |lattice_vector       0.00573822       0.00000000       0.00000000  |
  |lattice_vector       0.00000000      -0.00264515       0.00000000  |
  |lattice_vector       0.00000000       0.00000000       0.00120417  |
  +-------------------------------------------------------------------+
  Removing unitary transformations (pure translations, rotations) from forces on atoms.
  Atomic forces before filtering:
  | Net force on center of mass :  -0.165513E-17 -0.174225E-17  0.348449E-18 eV/A
  Atomic forces after filtering:
  | Net force on center of mass :  -0.871124E-19 -0.143735E-17 -0.174225E-18 eV/A
  Net remaining forces (excluding translations, rotations) in present geometry:
  || Forces on atoms   || =   0.303779E-02 eV/A.
  || Forces on lattice || =   0.573822E-02 eV/A^3.
  Maximum force component is  0.573822E-02 eV/A.
  Present geometry is converged.

  Symmetry-reduced parameters:
  | atomic   1          0.502212397433541E+00
  | atomic   2          0.226372566642297E-02
  | atomic   3          0.221147636656646E-02
  | atomic   4          0.224599746736406E-02
  | atomic   5          0.224180910848659E-02
  | atomic   6          0.502281656289736E+00
  | atomic   7          0.230361495784520E-02
  | atomic   8          0.502251072761837E+00
  | atomic   9          0.218920532881067E-02
  | atomic  10          0.502258602180033E+00
  | atomic  11          0.502243666441082E+00
  | atomic  12          0.502300465333884E+00
  | atomic  13          0.614483518497905E+00
  | atomic  14          0.120434656000318E+00
  | atomic  15          0.404826241394784E+00
  | atomic  16          0.890030714157211E+00
  | atomic  17          0.884058805478620E+00
  | atomic  18          0.904807745796240E+00
  | atomic  19          0.114454626387354E+00
  | atomic  20          0.384079885787470E+00
  | atomic  21          0.599697331300954E+00
  | atomic  22          0.390028878230545E+00
  | atomic  23          0.620400333183593E+00
  | atomic  24          0.996617116386408E-01
  | atomic  25          0.390034972389381E+00
  | atomic  26          0.884093030823587E+00
  | atomic  27          0.599692417883257E+00
  | atomic  28          0.114412734868636E+00
  | atomic  29          0.120419451989642E+00
  | atomic  30          0.996762960489176E-01
  | atomic  31          0.890016277779086E+00
  | atomic  32          0.620424824598773E+00
  | atomic  33          0.404825529211622E+00
  | atomic  34          0.614503914995776E+00
  | atomic  35          0.384074979594918E+00
  | atomic  36          0.904816172769230E+00
  | lattice  1          0.585843657990829E+01
  | lattice  2          0.596077012267900E+01
  | lattice  3          0.743775579703823E+01
  Symmetry-reduced forces:
  | atomic   1          0.331524486675762E-02
  | atomic   2         -0.134294898632460E-01
  | atomic   3          0.578590966077671E-02
  | atomic   4         -0.752797421075123E-03
  | atomic   5          0.110479699979135E-02
  | atomic   6         -0.197051845652113E-02
  | atomic   7         -0.110005814797552E-01
  | atomic   8         -0.878740090653738E-02
  | atomic   9          0.471185530124883E-02
  | atomic  10         -0.152878392059138E-02
  | atomic  11          0.207562691913334E-02
  | atomic  12         -0.219851929363283E-02
  | atomic  13         -0.598951092248307E-03
  | atomic  14         -0.321095274841616E-02
  | atomic  15          0.814461363557042E-03
  | atomic  16         -0.110020428705200E-01
  | atomic  17          0.971533455117854E-02
  | atomic  18         -0.611187899760491E-02
  | atomic  19          0.486797231856100E-02
  | atomic  20          0.215675169224802E-02
  | atomic  21         -0.569951861515237E-03
  | atomic  22          0.413026512468268E-02
  | atomic  23          0.113506836507440E-01
  | atomic  24          0.222386308567745E-02
  | atomic  25         -0.137961504105866E-02
  | atomic  26         -0.926143953139679E-03
  | atomic  27          0.154222801743888E-02
  | atomic  28          0.177967134028127E-01
  | atomic  29         -0.489720872338271E-03
  | atomic  30         -0.183598130861964E-03
  | atomic  31         -0.879153146430039E-03
  | atomic  32         -0.151840170778134E-02
  | atomic  33          0.284108796428789E-02
  | atomic  34         -0.296827074113531E-02
  | atomic  35          0.195891623836351E-02
  | atomic  36         -0.688493865285073E-02
  | lattice  1          0.573822259427212E-02
  | lattice  2         -0.264515071545970E-02
  | lattice  3          0.120416691919759E-02
------------------------------------------------------------
  Final atomic structure:
                         x [A]             y [A]             z [A]
  lattice_vector         5.85843658        0.00000000        0.00000000
  lattice_vector         0.00000000        5.96077012        0.00000000
  lattice_vector         0.00000000        0.00000000        7.43775580

            atom        -2.91625710        0.01349355        0.01644842  Pd
            atom         0.01315803        0.01336291       -3.70190750  Pd
            atom         0.01349558       -2.96696693        0.01628277  Pd
            atom        -2.91598641       -2.96701108       -3.70176760  Pd
            atom        -2.25852386        0.71788330        3.01099872  Se
            atom        -0.64424809       -0.69109881       -0.70801674  Se
            atom         0.67052517        2.28941191       -2.97735349  Se
            atom         2.28495945       -2.26270635        0.74125947  Se
            atom         2.28499515       -0.69089480       -2.97739004  Se
            atom         0.67027975        0.71779267        0.74136795  Se
            atom        -0.64433266       -2.26256036        3.01099343  Se
            atom        -2.25840437        2.28938266       -0.70795406  Se

  Fractional coordinates:
                         L1                L2                L3
       atom_frac        -0.49778760        0.00226373        0.00221148  Pd
       atom_frac         0.00224600        0.00224181       -0.49771834  Pd
       atom_frac         0.00230361       -0.49774893        0.00218921  Pd
       atom_frac        -0.49774140       -0.49775633       -0.49769953  Pd
       atom_frac        -0.38551648        0.12043466        0.40482624  Se
       atom_frac        -0.10996929       -0.11594119       -0.09519225  Se
       atom_frac         0.11445463        0.38407989       -0.40030267  Se
       atom_frac         0.39002888       -0.37959967        0.09966171  Se
       atom_frac         0.39003497       -0.11590697       -0.40030758  Se
       atom_frac         0.11441273        0.12041945        0.09967630  Se
       atom_frac        -0.10998372       -0.37957518        0.40482553  Se
       atom_frac        -0.38549609        0.38407498       -0.09518383  Se
------------------------------------------------------------

------------------------------------------------------------------------------
  Final output of selected total energy values:

  The following output summarizes some interesting total energy values
  at the end of a run (AFTER all relaxation, molecular dynamics, etc.).

  | Total energy of the DFT / Hartree-Fock s.c.f. calculation      :       -1087911.113608221 eV
  | Final zero-broadening corrected energy (caution - metals only) :       -1087911.115025267 eV
  | For reference only, the value of 1 Hartree used in FHI-aims is :             27.211384500 eV
  | For reference only, the overall average (free atom contribution
  | + realspace contribution) of the electrostatic potential after
  | s.c.f. convergence is                                          :            -17.061741920 eV

  Before relying on these values, please be sure to understand exactly which
  total energy value is referred to by a given number. Different objects may
  all carry the same name 'total energy'. Definitions:

  Total energy of the DFT / Hartree-Fock s.c.f. calculation:
  | Note that this energy does not include ANY quantities calculated after the
  | s.c.f. cycle, in particular not ANY RPA, MP2, etc. many-body perturbation terms.

  Final zero-broadening corrected energy:
  | For metallic systems only, a broadening of the occupation numbers at the Fermi
  | level can be extrapolated back to zero broadening by an electron-gas inspired
  | formula. For all systems that are not real metals, this value can be
  | meaningless and should be avoided.

------------------------------------------------------------------------------
  Methods described in the following list of references were used in this FHI-aims run.
  If you publish the results, please make sure to cite these reference if they apply.
  FHI-aims is an academic code, and for our developers (often, Ph.D. students
  and postdocs), scientific credit in the community is essential.
  Thank you for helping us!

  For any use of FHI-aims, please cite:

    Volker Blum, Ralf Gehrke, Felix Hanke, Paula Havu, Ville Havu,
    Xinguo Ren, Karsten Reuter, and Matthias Scheffler
    'Ab initio molecular simulations with numeric atom-centered orbitals'
    Computer Physics Communications 180, 2175-2196 (2009)
    http://dx.doi.org/10.1016/j.cpc.2009.06.022


  For the analytical stress tensor used in your run, please cite:

    Franz Knuth, Christian Carbogno, Viktor Atalla, Volker Blum, Matthias Scheffler
    'All-electron formalism for total energy strain derivatives and
    stress tensor components for numeric atom-centered orbitals'
    Computer Physics Communications 190, 33-50 (2015).
    http://dx.doi.org/10.1016/j.cpc.2015.01.003


  The provided symmetry information was generated with SPGlib:

    Atsushi Togo, Yusuke Seto, Dimitar Pashov
    SPGlib 1.7.3 obtained from http://spglib.sourceforge.net
    Copyright (C) 2008 Atsushi Togo


  The ELSI infrastructure was used in your run to solve the Kohn-Sham electronic structure.
  Please check out http://elsi-interchange.org to learn more.
  If scalability is important for your project, please acknowledge ELSI by citing:

    V. W-z. Yu, F. Corsetti, A. Garcia, W. P. Huhn, M. Jacquelin, W. Jia,
    B. Lange, L. Lin, J. Lu, W. Mi, A. Seifitokaldani, A. Vazquez-Mayagoitia,
    C. Yang, H. Yang, and V. Blum
    'ELSI: A unified software interface for Kohn-Sham electronic structure solvers'
    Computer Physics Communications 222, 267-285 (2018).
    http://dx.doi.org/10.1016/j.cpc.2017.09.007


  For the real-space grid partitioning and parallelization used in this calculation, please cite:

    Ville Havu, Volker Blum, Paula Havu, and Matthias Scheffler,
    'Efficient O(N) integration for all-electron electronic structure calculation'
    'using numerically tabulated basis functions'
    Journal of Computational Physics 228, 8367-8379 (2009).
    http://dx.doi.org/10.1016/j.jcp.2009.08.008

  Of course, there are many other important community references, e.g., those cited in the
  above references. Our list is limited to references that describe implementations in the
  FHI-aims code. The reason is purely practical (length of this list) - please credit others as well.

------------------------------------------------------------
          Leaving FHI-aims.
          Date     :  20200420, Time     :  212249.855

          Computational steps:
          | Number of self-consistency cycles          :          119
          | Number of SCF (re)initializations          :            6
          | Number of relaxation steps                 :            5

          Detailed time accounting                     :  max(cpu_time)    wall_clock(cpu1)
          | Total time                                 :     2529.410 s        2531.062 s
          | Preparation time                           :        0.554 s           0.641 s
          | Boundary condition initalization           :        0.740 s           0.729 s
          | Grid partitioning                          :        2.129 s           2.116 s
          | Preloading free-atom quantities on grid    :        5.838 s           5.840 s
          | Free-atom superposition energy             :        0.861 s           0.860 s
          | Total time for integrations                :      336.560 s         336.582 s
          | Total time for solution of K.-S. equations :      389.395 s         389.783 s
          | Total time for EV reorthonormalization     :        5.189 s           4.968 s
          | Total time for density & force components  :     1384.080 s        1384.210 s
          | Total time for mixing & preconditioning    :       83.623 s          83.632 s
          | Total time for Hartree multipole update    :        0.512 s           0.527 s
          | Total time for Hartree multipole sum       :      272.933 s         272.948 s
          | Total time for total energy evaluation     :        0.566 s           0.618 s
          | Total time for scaled ZORA corrections     :        0.000 s           0.000 s
          | Total time for vdW correction              :       44.052 s          44.062 s

          Partial memory accounting:
          | Residual value for overall tracked memory usage across tasks:     0.000000 MB (should be 0.000000 MB)
          | Peak values for overall tracked memory usage:
          |   Minimum:      139.177 MB (on task 21 after allocating d_wave)
          |   Maximum:      144.476 MB (on task  2 after allocating d_wave)
          |   Average:      142.491 MB
          | Largest tracked array allocation:
          |   Minimum:       46.189 MB (KS_eigenvector_complex on task  0)
          |   Maximum:       48.288 MB (KS_eigenvector_complex on task  1)
          |   Average:       47.676 MB
          Note:  These values currently only include a subset of arrays which are explicitly tracked.
          The "true" memory usage will be greater.

          Have a nice day.
------------------------------------------------------------
