------------------------------------------------------------
          Invoking FHI-aims ...

          When using FHI-aims, please cite the following reference:

          Volker Blum, Ralf Gehrke, Felix Hanke, Paula Havu,
          Ville Havu, Xinguo Ren, Karsten Reuter, and Matthias Scheffler,
          'Ab Initio Molecular Simulations with Numeric Atom-Centered Orbitals',
          Computer Physics Communications 180, 2175-2196 (2009)

          For any questions about FHI-aims, please visit the aimsclub website
          with its forums and wiki. Contributions to both the forums and the
          wiki are warmly encouraged - they are for you, and everyone is welcome there.

------------------------------------------------------------



  Date     :  20200320, Time     :  115727.080
  Time zero on CPU 1             :   0.138074000000000E+00  s.
  Internal wall clock time zero  :           353937447.080  s.

  FHI-aims created a unique identifier for this run for later identification
  aims_uuid : 0963AE6E-69D9-49E1-A599-EA8717862F73

  Build configuration of the current instance of FHI-aims
  -------------------------------------------------------
  FHI-aims version      : 200112
  Commit number         : 23daeca3f
  CMake host system     : Linux-3.10.0-693.21.1.el7.x86_64
  CMake version         : 3.13.3
  Fortran compiler      : /sw/installed/impi/2018.4.274-iccifort-2019.1.144-GCC-8.2.0-2.31.1/bin64/mpiifort (Intel) version 19.0.0.20181018
  Fortran compiler flags: -O3 -ip -fp-model precise
  C compiler            : /sw/installed/impi/2018.4.274-iccifort-2019.1.144-GCC-8.2.0-2.31.1/bin64/mpiicc (Intel) version 19.0.0.20181018
  C compiler flags      : -O3 -ip -fp-model precise
  Architecture          :
  Using MPI
  Using Scalapack
  Using C files
  Using LibXC
  Using SPGlib
  Using i-PI
  Using RLSY
  Linking against: /sw/installed/imkl/2019.1.144-iimpi-2019a/mkl/lib/intel64/libmkl_intel_lp64.so
                   /sw/installed/imkl/2019.1.144-iimpi-2019a/mkl/lib/intel64/libmkl_sequential.so
                   /sw/installed/imkl/2019.1.144-iimpi-2019a/mkl/lib/intel64/libmkl_core.so
                   /sw/installed/imkl/2019.1.144-iimpi-2019a/mkl/lib/intel64/libmkl_blacs_intelmpi_lp64.so
                   /sw/installed/imkl/2019.1.144-iimpi-2019a/mkl/lib/intel64/libmkl_scalapack_lp64.so

  Using       24 parallel tasks.
  Task        0 on host taurusi5115.taurus.hrsk.tu-dresden.de reporting.
  Task        1 on host taurusi5115.taurus.hrsk.tu-dresden.de reporting.
  Task        2 on host taurusi5115.taurus.hrsk.tu-dresden.de reporting.
  Task        3 on host taurusi5115.taurus.hrsk.tu-dresden.de reporting.
  Task        4 on host taurusi5115.taurus.hrsk.tu-dresden.de reporting.
  Task        5 on host taurusi5115.taurus.hrsk.tu-dresden.de reporting.
  Task        6 on host taurusi5115.taurus.hrsk.tu-dresden.de reporting.
  Task        7 on host taurusi5115.taurus.hrsk.tu-dresden.de reporting.
  Task        8 on host taurusi5115.taurus.hrsk.tu-dresden.de reporting.
  Task        9 on host taurusi5115.taurus.hrsk.tu-dresden.de reporting.
  Task       10 on host taurusi5115.taurus.hrsk.tu-dresden.de reporting.
  Task       11 on host taurusi5115.taurus.hrsk.tu-dresden.de reporting.
  Task       12 on host taurusi5115.taurus.hrsk.tu-dresden.de reporting.
  Task       13 on host taurusi5115.taurus.hrsk.tu-dresden.de reporting.
  Task       14 on host taurusi5115.taurus.hrsk.tu-dresden.de reporting.
  Task       15 on host taurusi5115.taurus.hrsk.tu-dresden.de reporting.
  Task       16 on host taurusi5115.taurus.hrsk.tu-dresden.de reporting.
  Task       17 on host taurusi5115.taurus.hrsk.tu-dresden.de reporting.
  Task       18 on host taurusi5115.taurus.hrsk.tu-dresden.de reporting.
  Task       19 on host taurusi5115.taurus.hrsk.tu-dresden.de reporting.
  Task       20 on host taurusi5115.taurus.hrsk.tu-dresden.de reporting.
  Task       21 on host taurusi5115.taurus.hrsk.tu-dresden.de reporting.
  Task       22 on host taurusi5115.taurus.hrsk.tu-dresden.de reporting.
  Task       23 on host taurusi5115.taurus.hrsk.tu-dresden.de reporting.

  Performing system and environment tests:
  | Environment variable OMP_NUM_THREADS correctly set to 1.
  | Maximum stacksize for task 0: unlimited
  | Maximum stacksize for task 1: unlimited
  | Maximum stacksize for task 2: unlimited
  | Maximum stacksize for task 3: unlimited
  | Maximum stacksize for task 4: unlimited
  | Maximum stacksize for task 5: unlimited
  | Maximum stacksize for task 6: unlimited
  | Maximum stacksize for task 7: unlimited
  | Maximum stacksize for task 8: unlimited
  | Maximum stacksize for task 9: unlimited
  | Maximum stacksize for task 10: unlimited
  | Maximum stacksize for task 11: unlimited
  | Maximum stacksize for task 12: unlimited
  | Maximum stacksize for task 13: unlimited
  | Maximum stacksize for task 14: unlimited
  | Maximum stacksize for task 15: unlimited
  | Maximum stacksize for task 16: unlimited
  | Maximum stacksize for task 17: unlimited
  | Maximum stacksize for task 18: unlimited
  | Maximum stacksize for task 19: unlimited
  | Maximum stacksize for task 20: unlimited
  | Maximum stacksize for task 21: unlimited
  | Maximum stacksize for task 22: unlimited
  | Maximum stacksize for task 23: unlimited
  | Current stacksize for task 0: unlimited
  | Current stacksize for task 1: unlimited
  | Current stacksize for task 2: unlimited
  | Current stacksize for task 3: unlimited
  | Current stacksize for task 4: unlimited
  | Current stacksize for task 5: unlimited
  | Current stacksize for task 6: unlimited
  | Current stacksize for task 7: unlimited
  | Current stacksize for task 8: unlimited
  | Current stacksize for task 9: unlimited
  | Current stacksize for task 10: unlimited
  | Current stacksize for task 11: unlimited
  | Current stacksize for task 12: unlimited
  | Current stacksize for task 13: unlimited
  | Current stacksize for task 14: unlimited
  | Current stacksize for task 15: unlimited
  | Current stacksize for task 16: unlimited
  | Current stacksize for task 17: unlimited
  | Current stacksize for task 18: unlimited
  | Current stacksize for task 19: unlimited
  | Current stacksize for task 20: unlimited
  | Current stacksize for task 21: unlimited
  | Current stacksize for task 22: unlimited
  | Current stacksize for task 23: unlimited
  | Checking for scalapack...
  | Testing pdtran()...
  | All pdtran() tests passed.

  Obtaining array dimensions for all initial allocations:
  
  -----------------------------------------------------------------------
  Parsing control.in (first pass over file, find array dimensions only).
  The contents of control.in will be repeated verbatim below
  unless switched off by setting 'verbatim_writeout .false.' .
  in the first line of control.in .
  -----------------------------------------------------------------------
  
  #===============================================================================
  # FHI-aims file: ./control.in
  # Created using the Atomic Simulation Environment (ASE)
  # Thu Mar 19 17:13:26 2020
  #===============================================================================
  xc                                 pbe
  # include_spin_orbit
  # vdw_correction_hirshfeld
  # many_body_dispersion_nl 	 beta=0.81
  spin                               none
  k_grid 	 	 19 19 19
  relativistic                       atomic_zora scalar
  ### SCF settings
  adjust_scf 	 always 	 3
  # frozen_core_scf 	 .true.
  # charge_mix_param  0.05
  # occupation_type 	 gaussian 	 0.01
  # sc_accuracy_eev   1E-3 	 	 # sum of eigenvalues convergence
  # sc_accuracy_etot  1E-6 	 	 # total energy convergence
  # sc_accuracy_rho   1E-3 	 	 # electron density convergence
  # elsi_restart 	 read_and_write 	 1000
  #===============================================================================
  
  ################################################################################
  #
  #  FHI-aims code project
  # Volker Blum, Fritz Haber Institute Berlin, 2009
  #
  #  Suggested "tight" defaults for S atom (to be pasted into control.in file)
  #
  #  Revised Jan 04, 2011, following tests (SiC) done by Lydia Nemec:
  #     d and g functions of tier 2 now enabled by default.
  #
  ################################################################################
    species        S
  #     global species definitions
      nucleus             16
      mass                32.065
  #
      l_hartree           6
  #
      cut_pot             4.0          2.0  1.0
      basis_dep_cutoff    1e-4
  #
      radial_base         44 7.0
      radial_multiplier   2
      angular_grids       specified
        division   0.4665  110
        division   0.5810  194
        division   0.7139  302
        division   0.8274  434
  #      division   0.9105  590
  #      division   1.0975  770
  #      division   1.2028  974
  #      outer_grid  974
        outer_grid  434
  ################################################################################
  #
  #  Definition of "minimal" basis
  #
  ################################################################################
  #     valence basis states
      valence      3  s   2.
      valence      3  p   4.
  #     ion occupancy
      ion_occ      3  s   1.
      ion_occ      3  p   3.
  ################################################################################
  #
  #  Suggested additional basis functions. For production calculations,
  #  uncomment them one after another (the most important basis functions are
  #  listed first).
  #
  #  Constructed for dimers: 1.6 A, 1.9 A, 2.5 A, 3.25 A, 4.0 A
  #
  ################################################################################
  #  "First tier" - improvements: -652.81 meV to -45.53 meV
       ionic 3 d auto
       hydro 2 p 1.8
       hydro 4 f 7
       ionic 3 s auto
  #  "Second tier" - improvements: -30.20 meV to -1.74 meV
  #     hydro 4 d 6.2
  #     hydro 5 g 10.8
  #     hydro 4 p 4.9
  #     hydro 5 f 10
  #     hydro 1 s 0.8
  #  "Third tier" - improvements: -1.04 meV to -0.20 meV
  #     hydro 3 d 3.9
  #     hydro 3 d 2.7
  #     hydro 5 g 12
  #     hydro 4 p 10.4
  #     hydro 5 f 12.4
  #     hydro 2 s 1.9
  #  "Fourth tier" - improvements: -0.35 meV to -0.06 meV
  #     hydro 4 d 10.4
  #     hydro 4 p 7.2
  #     hydro 4 d 10
  #     hydro 5 g 19.2
  #     hydro 4 s 12
  #
  ################################################################################
  #
  # For methods that use the localized form of the "resolution of identity" for
  # the two-electron Coulomb operator (RI_method LVL), particularly Hartree-Fock and
  # hybrid density functional calculations, the highest accuracy can be obtained by
  # uncommenting the line beginning with "for_aux"  below, thus adding an extra g radial
  # function to the construction of the product basis set for the expansion.
  # See Ref. New J. Phys. 17, 093020 (2015) for more information, particularly Figs. 1 and 6.
  #
  ################################################################################
  #
  # for_aux hydro 5 g 6.0
  ################################################################################
  #
  #  FHI-aims code project
  # Volker Blum, Fritz Haber Institute Berlin, 2010
  #
  #  Suggested "tight" defaults for Ni atom (to be pasted into control.in file)
  #
  #  Revised June 14, 2011.
  #     p and d functions of tier 2 now enabled by default, as the atom may change
  #     its occupation. Similar to Co.
  #
  ################################################################################
    species        Ni
  #     global species definitions
      nucleus             28
      mass                58.6934
  #
      l_hartree           6
  #
      cut_pot             4.0          2.0  1.0
      basis_dep_cutoff    1e-4
  #
      radial_base         52 7.0
      radial_multiplier   2
      angular_grids       specified
        division   0.2935   50
        division   0.6132  110
        division   0.9287  194
        division   1.1299  302
        division   1.3700  434
  #      division   1.5675  590
  #      division   1.7612  770
  #      division   1.9438  974
  #      division   2.5441 1202
        outer_grid  434
  ################################################################################
  #
  #  Definition of "minimal" basis
  #
  ################################################################################
  #     valence basis states
      valence      4  s   2.
      valence      3  p   6.
      valence      3  d   8.
  #     ion occupancy
      ion_occ      4  s   1.
      ion_occ      3  p   6.
      ion_occ      3  d   7.
  ################################################################################
  #
  #  Suggested additional basis functions. For production calculations,
  #  uncomment them one after another (the most important basis functions are
  #  listed first).
  #
  #  Constructed for dimers: 1.65 A, 2.00 A, 2.50 A, 3.00 A, 4.00 A
  #
  ################################################################################
  #  "First tier" - improvements: -123.08 meV to -11.61 meV
       hydro 3 p 6
       hydro 4 f 9
       hydro 5 g 12.4
       hydro 3 d 5.2
       ionic 4 s auto
  #  "Second tier" - improvements: -6.71 meV to -1.07 meV
  #     ionic 4 p auto
  #     hydro 4 d 6
  #     hydro 6 h 18
  #     hydro 4 f 9.4
  #     hydro 4 f 16.4
  #     hydro 1 s 0.75
  #  "Third tier" - improvements: -0.57 meV to -0.07 meV
  #     hydro 4 p 18.4
  #     hydro 4 d 8
  #     hydro 5 g 13.2
  #     hydro 5 f 8.4
  #     hydro 6 h 16.8
  #     hydro 4 s 4.4
  #  Further functions: improvements -0.07 meV and below
  #     hydro 5 f 16.8
  #     hydro 4 p 10
  #
  
  -----------------------------------------------------------------------
  Completed first pass over input file control.in .
  -----------------------------------------------------------------------
  
  
  -----------------------------------------------------------------------
  Parsing geometry.in (first pass over file, find array dimensions only).
  The contents of geometry.in will be repeated verbatim below
  unless switched off by setting 'verbatim_writeout .false.' .
  in the first line of geometry.in .
  -----------------------------------------------------------------------
  
  #=======================================================
  # FHI-aims file: ./geometry.in
  # Created using the Atomic Simulation Environment (ASE)
  # Thu Mar 19 17:13:26 2020
  #=======================================================
  lattice_vector 2.8655000099999999 1.6543972000000000 2.3730000000000002
  lattice_vector -2.8655000099999999 1.6543972000000000 2.3730000000000002
  lattice_vector 0.0000000000000000 -3.3087944000000000 2.3730000000000002
  atom_frac 0.7479000000000001 0.7479000000000000 0.7478999999999999 S
  atom_frac 0.2520999999999999 0.2520999999999999 0.2520999999999999 S
  atom_frac 0.4999999992687707 0.2449000001590167 0.7551000005722124 Ni
  atom_frac 0.2448999991453499 0.7551000008546502 0.4999999999999999 Ni
  atom_frac 0.7550999998409831 0.5000000007312292 0.2448999994277875 Ni
  
  -----------------------------------------------------------------------
  Completed first pass over input file geometry.in .
  -----------------------------------------------------------------------
  

  Basic array size parameters:
  | Number of species                 :        2
  | Number of atoms                   :        5
  | Number of lattice vectors         :        3
  | Max. basis fn. angular momentum   :        4
  | Max. atomic/ionic basis occupied n:        4
  | Max. number of basis fn. types    :        3
  | Max. radial fns per species/type  :        7
  | Max. logarithmic grid size        :     1403
  | Max. radial integration grid size :      105
  | Max. angular integration grid size:      434
  | Max. angular grid division number :        8
  | Radial grid for Hartree potential :     1403
  | Number of spin channels           :        1

------------------------------------------------------------
          Reading file control.in.
------------------------------------------------------------
  XC: Using PBE gradient-corrected functionals.
  Spin treatment: No spin polarisation.
  Found k-point grid:        19        19        19
  Scalar relativistic treatment of kinetic energy: on-site free-atom approximation to ZORA.
  S.C.F. convergence parameters will be adjusted in iteration number     3 of each new s.c.f. cycle.
 
  Reading configuration options for species S                   .
  | Found nuclear charge :  16.0000
  | Found atomic mass :    32.0650000000000      amu
  | Found l_max for Hartree potential  :   6
  | Found cutoff potl. onset [A], width [A], scale factor :    4.00000    2.00000    1.00000
  | Threshold for basis-dependent cutoff potential is   0.100000E-03
  | Found data for basic radial integration grid :    44 points, outermost radius =    7.000 A
  | Found multiplier for basic radial grid :   2
  | Found angular grid specification: user-specified.
  | Specified grid contains     5 separate shells.
  | Check grid settings after all constraints further below.
  | Found free-atom valence shell :  3 s   2.000
  | Found free-atom valence shell :  3 p   4.000
  | Found free-ion valence shell :  3 s   1.000
  | Found free-ion valence shell :  3 p   3.000
  | Found ionic basis function :  3 d , default cutoff radius.
  | Found hydrogenic basis function :  2 p   1.800
  | Found hydrogenic basis function :  4 f   7.000
  | Found ionic basis function :  3 s , default cutoff radius.
  Species S                   : Missing cutoff potential type.
  Defaulting to exp(1/x)/(1-x)^2 type cutoff potential.
  Species S : No 'logarithmic' tag. Using default grid for free atom:
  | Default logarithmic grid data [bohr] : 0.1000E-03 0.1000E+03 0.1012E+01
  | Will include ionic basis functions of  2.0-fold positive S                    ion.
  Species S : On-site basis accuracy parameter (for Gram-Schmidt orthonormalisation) not specified.
  Using default value basis_acc =  0.1000000E-03.
  Species S                   : Using default innermost maximum threshold i_radial=  2 for radial functions.
  Species S                   : Default cutoff onset for free atom density etc. : 0.40000000E+01 AA.
  Species S                   : Basic radial grid will be enhanced according to radial_multiplier =   2, to contain    89 grid points.
 
  Reading configuration options for species Ni                  .
  | Found nuclear charge :  28.0000
  | Found atomic mass :    58.6934000000000      amu
  | Found l_max for Hartree potential  :   6
  | Found cutoff potl. onset [A], width [A], scale factor :    4.00000    2.00000    1.00000
  | Threshold for basis-dependent cutoff potential is   0.100000E-03
  | Found data for basic radial integration grid :    52 points, outermost radius =    7.000 A
  | Found multiplier for basic radial grid :   2
  | Found angular grid specification: user-specified.
  | Specified grid contains     6 separate shells.
  | Check grid settings after all constraints further below.
  | Found free-atom valence shell :  4 s   2.000
  | Found free-atom valence shell :  3 p   6.000
  | Found free-atom valence shell :  3 d   8.000
  | Found free-ion valence shell :  4 s   1.000
  | Found free-ion valence shell :  3 p   6.000
  | Found free-ion valence shell :  3 d   7.000
  | Found hydrogenic basis function :  3 p   6.000
  | Found hydrogenic basis function :  4 f   9.000
  | Found hydrogenic basis function :  5 g  12.400
  | Found hydrogenic basis function :  3 d   5.200
  | Found ionic basis function :  4 s , default cutoff radius.
  Species Ni                  : Missing cutoff potential type.
  Defaulting to exp(1/x)/(1-x)^2 type cutoff potential.
  Species Ni: No 'logarithmic' tag. Using default grid for free atom:
  | Default logarithmic grid data [bohr] : 0.1000E-03 0.1000E+03 0.1012E+01
  | Will include ionic basis functions of  2.0-fold positive Ni                   ion.
  Species Ni: On-site basis accuracy parameter (for Gram-Schmidt orthonormalisation) not specified.
  Using default value basis_acc =  0.1000000E-03.
  Species Ni                  : Using default innermost maximum threshold i_radial=  2 for radial functions.
  Species Ni                  : Default cutoff onset for free atom density etc. : 0.40000000E+01 AA.
  Species Ni                  : Basic radial grid will be enhanced according to radial_multiplier =   2, to contain   105 grid points.
 
  Finished reading input file 'control.in'. Consistency checks are next.
 
  MPI_IN_PLACE appears to work with this MPI implementation.
  | Keeping use_mpi_in_place .true. (see manual).
  Target number of points in a grid batch is not set. Defaulting to  100
  Method for grid partitioning is not set. Defaulting to parallel hash+maxmin partitioning.
  Batch size limit is not set. Defaulting to    200
  By default, will store active basis functions for each batch.
  If in need of memory, prune_basis_once .false. can be used to disable this option.
  communication_type for Hartree potential was not specified.
  Defaulting to calc_hartree .
  Defaulting to Pulay charge density mixer.
  Pulay mixer: Number of relevant iterations not set.
  Defaulting to    8 iterations.
  Pulay mixer: Number of initial linear mixing iterations not set.
  Defaulting to    0 iterations.
  Work space size for distributed Hartree potential not set.
  Defaulting to   0.200000E+03 MB.
  Mixing parameter for charge density mixing has not been set.
  Using default: charge_mix_param =     0.0500.
  The mixing parameter will be adjusted in iteration number     3 of each s.c.f. cycle (i.e., each geometry step).
  Algorithm-dependent basis array size parameters:
  | n_max_pulay                         :        8
  Maximum number of self-consistency iterations not provided.
  Presetting  1000 iterations.
  Presetting      1001 iterations before the initial mixing cycle
  is restarted anyway using the sc_init_iter criterion / keyword.
  Presetting a factor      1.000 between actual scf density residual
  and density convergence criterion sc_accuracy_rho below which sc_init_iter
  takes no effect.
 * No s.c.f. convergence criteria (sc_accuracy_*) were provided in control.in.
 * The run will proceed with a reasonable default guess, but please check whether.
 * the s.c.f. cycles seem to take too much or too little time.
  Calculation of forces was not defined in control.in. No forces will be calculated.
  Geometry relaxation not requested: no relaxation will be performed.
 * Notice: The s.c.f. convergence criterion sc_accuracy_rho was not provided.
 * We used to stop in this case, and ask the user to provide reasonable
 * scf convergence criteria. However, this led some users to employ criteria
 * that led to extremely long run times, e.g., for simple relaxation.
 * We now preset a default value for sc_accuracy_rho if it is not set.
 * You may still wish to check if this setting is too tight or too loose for your needs.
 * Based on n_atoms, FHI-aims chose sc_accuracy_rho =  0.100000E-05 .
  No accuracy limit for integral partition fn. given. Defaulting to  0.1000E-14.
  No threshold value for u(r) in integrations given. Defaulting to  0.1000E-05.
  No occupation type (smearing scheme) given. Defaulting to Gaussian broadening, width =  0.1000E-01 eV.
  The width will be adjusted in iteration number     3 of each s.c.f. cycle (i.e., each geometry step).
  S.C.F. convergence parameters will be adjusted in iteration number     3 of the first full s.c.f. cycle only.
  No accuracy for occupation numbers given. Defaulting to  0.1000E-12.
  No threshold value for occupation numbers given. Defaulting to  0.0000E+00.
  No accuracy for fermi level given. Defaulting to  0.1000E-19.
  Maximum # of iterations to find E_F not set. Defaulting to  200.
  Preferred method for the eigenvalue solver ('KS_method') not specified in 'control.in'.
  Defaulting to serial version, LAPACK (via ELSI), since more k-points than CPUs available.
  Will not use alltoall communication since running on < 1024 CPUs.
  Threshold for basis singularities not set.
  Default threshold for basis singularities:  0.1000E-04
  partition_type (choice of integration weights) for integrals was not specified.
  | Using a version of the partition function of Stratmann and coworkers ('stratmann_sparse').
  | At each grid point, the set of atoms used to build the partition table is smoothly restricted to
  | only those atoms whose free-atom density would be non-zero at that grid point.
  Partitioning for Hartree potential was not defined. Using partition_type for integrals.
  | Adjusted default value of keyword multip_moments_threshold to:       0.10000000E-11
  | This value may affect high angular momentum components of the Hartree potential in periodic systems.
  Angular momentum expansion for Kerker preconditioner not set explicitly.
  | Using default value of   0
  No explicit requirement for turning off preconditioner.
  | By default, it will be turned off when the charge convergence reaches
  | sc_accuracy_rho  =   0.100000E-05
  No special mixing parameter while Kerker preconditioner is on.
  Using default: charge_mix_param =     0.0500.
  No q(lm)/r^(l+1) cutoff set for long-range Hartree potential.
  | Using default value of  0.100000E-09 .
  | Verify using the multipole_threshold keyword.
  Defaulting to new monopole extrapolation.
  Density update method: automatic selection selected.
  Using density matrix based charge density update.
  Using density matrix based charge density update.
  Using packed matrix style: index .
  Defaulting to use time-reversal symmetry for k-point grid.
  Charge integration errors on the 3D integration grid will be compensated
  by explicit normalization and distribution of residual charges.
  Use the "compensate_multipole_errors" flag to change this behaviour.
------------------------------------------------------------


------------------------------------------------------------
          Reading geometry description geometry.in.
------------------------------------------------------------
  Input structure read successfully.
  The structure contains        5 atoms,  and a total of        116.000 electrons.

  Input geometry:
  | Unit cell:
  |        2.86550001        1.65439720        2.37300000
  |       -2.86550001        1.65439720        2.37300000
  |        0.00000000       -3.30879440        2.37300000
  | Atomic structure:
  |       Atom                x [A]            y [A]            z [A]
  |    1: Species S             0.00000000        0.00000000        5.32430010
  |    2: Species S             0.00000000        0.00000000        1.79469990
  |    3: Species Ni            0.73098905       -1.26611018        3.55950000
  |    4: Species Ni           -1.46197811        0.00000000        3.55950000
  |    5: Species Ni            0.73098905        1.26611018        3.55950000

  Lattice parameters for 3D lattice (in Angstroms) :     4.071762    4.071762    4.071762
  Angle(s) between unit vectors (in degrees)       :    89.457182   89.457182   89.457182

  | The smallest distance between any two atoms is         2.25317796 AA.
  | The first atom of this pair is atom number                      2 .
  | The second atom of this pair is atom number                     3 .
  | Wigner-Seitz cell of the first atom image           0     0     0 .
  | (The Wigner-Seitz cell of the second atom is 0 0 0  by definition.)

  Symmetry information by spglib:
  | Precision set to  0.1E-04
  | Number of Operations  : 6
  | Space group           : 155
  | International         : R32
  | Schoenflies           : D3^7

  Quantities derived from the lattice vectors:
  | Reciprocal lattice vector 1:  1.096351  0.632978  0.882594
  | Reciprocal lattice vector 2: -1.096351  0.632978  0.882594
  | Reciprocal lattice vector 3: -0.000000 -1.265957  0.882594
  | Unit cell volume                               :   0.674977E+02  A^3

  Range separation radius for Ewald summation (hartree_convergence_parameter):      3.35286743 bohr.

  Fractional coordinates:
                         L1                L2                L3
       atom_frac         0.74790000        0.74790000        0.74790000  S
       atom_frac         0.25210000        0.25210000        0.25210000  S
       atom_frac         0.50000000        0.24490000        0.75510000  Ni
       atom_frac         0.24490000        0.75510000        0.50000000  Ni
       atom_frac         0.75510000        0.50000000        0.24490000  Ni

  Number of empty states per atom not set in control.in - providing a guess from actual geometry.
  | Total number of empty states used during s.c.f. cycle:       23
  If you use a very high smearing, use empty_states (per atom!) in control.in to increase this value.

  Structure-dependent array size parameters: 
  | Maximum number of distinct radial functions  :       21
  | Maximum number of basis functions            :      170
  | Number of Kohn-Sham states (occupied + empty):       81
------------------------------------------------------------

------------------------------------------------------------
          Preparing all fixed parts of the calculation.
------------------------------------------------------------
  Determining machine precision:
    2.225073858507201E-308
  Setting up grids for atomic and cluster calculations.

  Creating wave function, potential, and density for free atoms.

  Species: S

  List of occupied orbitals and eigenvalues:
    n    l              occ      energy [Ha]    energy [eV]
    1    0           2.0000       -88.680731     -2413.1255
    2    0           2.0000        -7.781719      -211.7513
    3    0           2.0000        -0.633662       -17.2428
    2    1           6.0000        -5.751976      -156.5192
    3    1           4.0000        -0.257086        -6.9957


  Species: Ni

  List of occupied orbitals and eigenvalues:
    n    l              occ      energy [Ha]    energy [eV]
    1    0           2.0000      -304.743050     -8292.4803
    2    0           2.0000       -36.131806      -983.1965
    3    0           2.0000        -4.079607      -111.0118
    4    0           2.0000        -0.205732        -5.5982
    2    1           6.0000       -31.079526      -845.7169
    3    1           6.0000        -2.621160       -71.3254
    3    2           8.0000        -0.324430        -8.8282

  Creating fixed part of basis set: Ionic, confined, hydrogenic.
 
  S                    ion:

  List of free ionic orbitals and eigenvalues:
    n    l      energy [Ha]    energy [eV]
    1    0       -89.703778     -2440.9640
    2    0        -8.775428      -238.7916
    3    0        -1.470343       -40.0101
    2    1        -6.747660      -183.6132
    3    1        -1.048627       -28.5346


  List of ionic basis orbitals and eigenvalues:
    n    l      energy [Ha]    energy [eV]    outer radius [A]
    3    2        -0.495605       -13.4861       5.386362
    3    0        -1.470336       -40.0099       3.967934

 
  S                    hydrogenic:
 
  List of hydrogenic basis orbitals: 
    n    l      effective z      eigenvalue [eV]  inner max. [A]     outer max. [A]     outer radius [A]   
    2    1         1.800000       -11.0118           1.168531           1.168531           5.452614
    4    3         7.000000       -41.6672           1.212182           1.212182           5.066981
 
 
  Ni                   ion:

  List of free ionic orbitals and eigenvalues:
    n    l      energy [Ha]    energy [eV]
    1    0      -305.771730     -8320.4721
    2    0       -37.168450     -1011.4050
    3    0        -5.082327      -138.2972
    4    0        -0.877959       -23.8905
    2    1       -32.114551      -873.8814
    3    1        -3.616949       -98.4222
    3    2        -1.285588       -34.9826


  List of ionic basis orbitals and eigenvalues:
    n    l      energy [Ha]    energy [eV]    outer radius [A]
    4    0        -0.877949       -23.8902       4.958131

 
  Ni                   hydrogenic:
 
  List of hydrogenic basis orbitals: 
    n    l      effective z      eigenvalue [eV]  inner max. [A]     outer max. [A]     outer radius [A]   
    3    1         6.000000       -54.4226           0.263694           1.062560           4.387585
    4    3         9.000000       -68.8787           0.940288           0.940288           4.229585
    5    4        12.400000       -83.6803           1.062560           1.062560           4.334273
    3    2         5.200000       -40.8773           0.917577           0.917577           4.607470
 

  Adding cutoff potential to free-atom effective potential.
  Creating atomic-like basis functions for current effective potential.

  Species S                   :

  List of atomic basis orbitals and eigenvalues:
    n    l      energy [Ha]    energy [eV]    outer radius [A]
    1    0       -88.680731     -2413.1255       0.682391
    2    0        -7.781719      -211.7513       2.289014
    3    0        -0.633662       -17.2428       5.256262
    2    1        -5.751976      -156.5192       2.555240
    3    1        -0.257086        -6.9957       5.386362


  Species Ni                  :

  List of atomic basis orbitals and eigenvalues:
    n    l      energy [Ha]    energy [eV]    outer radius [A]
    1    0      -304.743050     -8292.4803       0.380519
    2    0       -36.131806      -983.1965       1.115810
    3    0        -4.079607      -111.0118       3.154104
    4    0        -0.205732        -5.5982       5.401105
    2    1       -31.079526      -845.7169       1.157492
    3    1        -2.621160       -71.3254       3.788913
    3    2        -0.324430        -8.8282       5.270650

  Assembling full basis from fixed parts.
  | Species S :   atomic orbital   1 s accepted.
  | Species S :   atomic orbital   2 s accepted.
  | Species S :    ionic orbital   3 s accepted.
  | Species S :   atomic orbital   3 s accepted.
  | Species S :   atomic orbital   2 p accepted.
  | Species S :   atomic orbital   3 p accepted.
  | Species S :    hydro orbital   2 p accepted.
  | Species S :    ionic orbital   3 d accepted.
  | Species S :    hydro orbital   4 f accepted.
  | Species Ni :   atomic orbital   1 s accepted.
  | Species Ni :   atomic orbital   2 s accepted.
  | Species Ni :   atomic orbital   3 s accepted.
  | Species Ni :    ionic orbital   4 s accepted.
  | Species Ni :   atomic orbital   4 s accepted.
  | Species Ni :   atomic orbital   2 p accepted.
  | Species Ni :   atomic orbital   3 p accepted.
  | Species Ni :    hydro orbital   3 p accepted.
  | Species Ni :    hydro orbital   3 d accepted.
  | Species Ni :   atomic orbital   3 d accepted.
  | Species Ni :    hydro orbital   4 f accepted.
  | Species Ni :    hydro orbital   5 g accepted.
 
  Basis size parameters after reduction:
  | Total number of radial functions:       21
  | Total number of basis functions :      170
 
  Per-task memory consumption for arrays in subroutine allocate_ext:
  |           7.547732MB.
  Testing on-site integration grid accuracy.
  |  Species  Function  <phi|h_atom|phi> (log., in eV)  <phi|h_atom|phi> (rad., in eV)
           1        1              -2413.1254568977              -2413.1254096663
           1        2               -211.7513411281               -211.7513404762
           1        3                -16.9725280787                -16.9725279206
           1        4                  7.6024436204                  7.6024549059
           1        5               -156.5192206929               -156.5192205451
           1        6                 -6.9959757887                 -6.9959777655
           1        7                  6.8896462808                  6.8895564741
           1        8                  6.0214250550                  6.0214220200
           1        9                 24.7008710786                 24.7008710738
           2       10              -8292.4803183187              -8292.4799864053
           2       11               -983.1964522319               -983.1964475627
           2       12               -111.0117677563               -111.0117669957
           2       13                 -4.6704069850                 -4.6704064205
           2       14                  5.4376377896                  5.4377770069
           2       15               -845.7169450217               -845.7169445279
           2       16                -71.3253797323                -71.3253792793
           2       17                  4.6041741906                  4.6041742555
           2       18                  6.8590345108                  6.8590343195
           2       19                  8.1931797134                  8.1931800033
           2       20                 39.2101910362                 39.2101910181
           2       21                 62.4641374386                 62.4641374755

  Preparing densities etc. for the partition functions (integrals / Hartree potential).

  Preparations completed.
  max(cpu_time)          :      0.426 s.
  Wall clock time (cpu1) :      0.472 s.
------------------------------------------------------------

------------------------------------------------------------
          Begin self-consistency loop: Initialization.

          Date     :  20200320, Time     :  115727.860
------------------------------------------------------------

  Initializing index lists of integration centers etc. from given atomic structure:
  Mapping all atomic coordinates to central unit cell.

  Initializing the k-points
  Using symmetry for reducing the k-points
  | k-points reduced from:     6859 to     3430
  | Number of k-points                             :      3430
  The eigenvectors in the calculations are COMPLEX.
  | K-points in task   0:       142
  | K-points in task   1:       143
  | K-points in task   2:       143
  | K-points in task   3:       143
  | K-points in task   4:       143
  | K-points in task   5:       143
  | K-points in task   6:       143
  | K-points in task   7:       143
  | K-points in task   8:       143
  | K-points in task   9:       143
  | K-points in task  10:       143
  | K-points in task  11:       143
  | K-points in task  12:       143
  | K-points in task  13:       143
  | K-points in task  14:       143
  | K-points in task  15:       143
  | K-points in task  16:       143
  | K-points in task  17:       143
  | K-points in task  18:       143
  | K-points in task  19:       143
  | K-points in task  20:       143
  | K-points in task  21:       143
  | K-points in task  22:       143
  | K-points in task  23:       142
  | Number of basis functions in the Hamiltonian integrals :      4632
  | Number of basis functions in a single unit cell        :       170
  | Number of centers in hartree potential         :      1258
  | Number of centers in hartree multipole         :       914
  | Number of centers in electron density summation:       650
  | Number of centers in basis integrals           :       725
  | Number of centers in integrals                 :       246
  | Number of centers in hamiltonian               :       650
  | Consuming      10290 KiB for k_phase.
  | Number of super-cells (origin) [n_cells]                     :        1331
  | Number of super-cells (after PM_index) [n_cells]             :         192
  | Number of super-cells in hamiltonian [n_cells_in_hamiltonian]:         192
  | Size of matrix packed + index [n_hamiltonian_matrix_size] :      681297
  | Estimated reciprocal-space cutoff momentum G_max:         2.94374401 bohr^-1 .
  | Reciprocal lattice points for long-range Hartree potential:     190
  Partitioning the integration grid into batches with parallel hashing+maxmin method.
  | Number of batches:     1531
  | Maximal batch size:     122
  | Minimal batch size:      21
  | Average batch size:      77.190
  | Standard deviation of batch sizes:      15.785

  Integration load balanced across    24 MPI tasks.
  Work distribution over tasks is as follows:
  Task     0 has       4941 integration points.
  Task     1 has       4925 integration points.
  Task     2 has       4964 integration points.
  Task     3 has       4882 integration points.
  Task     4 has       4914 integration points.
  Task     5 has       4925 integration points.
  Task     6 has       4935 integration points.
  Task     7 has       4889 integration points.
  Task     8 has       4934 integration points.
  Task     9 has       4943 integration points.
  Task    10 has       4891 integration points.
  Task    11 has       4886 integration points.
  Task    12 has       4952 integration points.
  Task    13 has       4966 integration points.
  Task    14 has       4963 integration points.
  Task    15 has       4881 integration points.
  Task    16 has       4895 integration points.
  Task    17 has       4895 integration points.
  Task    18 has       4930 integration points.
  Task    19 has       4929 integration points.
  Task    20 has       4942 integration points.
  Task    21 has       4937 integration points.
  Task    22 has       4954 integration points.
  Task    23 has       4905 integration points.
  Initializing partition tables, free-atom densities, potentials, etc. across the integration grid (initialize_grid_storage).
  | initialize_grid_storage: Actual outermost partition radius vs. multipole_radius_free
  | (-- VB: in principle, multipole_radius_free should be larger, hence this output)
  | Species        1: Confinement radius =              6.000000000000000 AA, multipole_radius_free =              6.012827091137924 AA.
  | Species        1: outer_partition_radius set to              6.012827091137924 AA .
  | Species        2: Confinement radius =              6.000000000000000 AA, multipole_radius_free =              6.029285478142582 AA.
  | Species        2: outer_partition_radius set to              6.029285478142582 AA .
  | The sparse table of interatomic distances needs       4581.48 kbyte instead of      4205.00 kbyte of memory.
  | Using the partition_type stratmann_smoother will reduce your memory usage.
  | Net number of integration points:   118178
  | of which are non-zero points    :    88020
  | Numerical average free-atom electrostatic potential    :    -20.58489465 eV
  Renormalizing the initial density to the exact electron count on the 3D integration grid.
  | Initial density: Formal number of electrons (from input files) :     116.0000000000
  | Integrated number of electrons on 3D grid     :     115.9999279300
  | Charge integration error                      :      -0.0000720700
  | Normalization factor for density and gradient :       1.0000006213
  Renormalizing the free-atom superposition density to the exact electron count on the 3D integration grid.
  | Formal number of electrons (from input files) :     116.0000000000
  | Integrated number of electrons on 3D grid     :     115.9999279300
  | Charge integration error                      :      -0.0000720700
  | Normalization factor for density and gradient :       1.0000006213
  Obtaining max. number of non-zero basis functions in each batch (get_n_compute_maxes).
  | Maximal number of non-zero basis functions:     1349 in task     0
  | Maximal number of non-zero basis functions:     1355 in task     1
  | Maximal number of non-zero basis functions:     1382 in task     2
  | Maximal number of non-zero basis functions:     1343 in task     3
  | Maximal number of non-zero basis functions:     1385 in task     4
  | Maximal number of non-zero basis functions:     1358 in task     5
  | Maximal number of non-zero basis functions:     1345 in task     6
  | Maximal number of non-zero basis functions:     1385 in task     7
  | Maximal number of non-zero basis functions:     1346 in task     8
  | Maximal number of non-zero basis functions:     1334 in task     9
  | Maximal number of non-zero basis functions:     1338 in task    10
  | Maximal number of non-zero basis functions:     1356 in task    11
  | Maximal number of non-zero basis functions:     1334 in task    12
  | Maximal number of non-zero basis functions:     1361 in task    13
  | Maximal number of non-zero basis functions:     1354 in task    14
  | Maximal number of non-zero basis functions:     1380 in task    15
  | Maximal number of non-zero basis functions:     1359 in task    16
  | Maximal number of non-zero basis functions:     1357 in task    17
  | Maximal number of non-zero basis functions:     1386 in task    18
  | Maximal number of non-zero basis functions:     1375 in task    19
  | Maximal number of non-zero basis functions:     1400 in task    20
  | Maximal number of non-zero basis functions:     1597 in task    21
  | Maximal number of non-zero basis functions:     1362 in task    22
  | Maximal number of non-zero basis functions:     1582 in task    23
  Allocating       29.836 MB for KS_eigenvector_complex
  Integrating Hamiltonian matrix: batch-based integration.
  Time summed over all CPUs for integration: real work       38.099 s, elapsed       39.478 s
  Integrating overlap matrix.
  Time summed over all CPUs for integration: real work       29.732 s, elapsed       30.899 s
  Decreasing sparse matrix size:
  | Tolerance:  0.1000E-12
  Hamiltonian matrix
  | Array has   586499 nonzero elements out of   681297 elements
  | Sparsity factor is 0.139
  Overlap matrix
  | Array has   542569 nonzero elements out of   681297 elements
  | Sparsity factor is 0.204
  New size of hamiltonian matrix:      586921

  Updating Kohn-Sham eigenvalues and eigenvectors using ELSI and the (modified) LAPACK eigensolver.
  Singularity check in k-point 24, task 0 (analysis for other k-points/tasks may follow below):
  Overlap matrix is not singular
  | Lowest and highest eigenvalues :  0.2799E-02,  0.1156E+02
  Finished singularity check of overlap matrix
  | Time :     0.019 s
  Starting LAPACK eigensolver
  Finished Cholesky decomposition
  | Time :     0.017 s
  Finished transformation to standard eigenproblem
  | Time :     0.002 s
  Finished solving standard eigenproblem
  | Time :     0.006 s
  Finished back-transformation of eigenvectors
  | Time :     0.000 s

  Obtaining occupation numbers and chemical potential using ELSI.
  | Chemical potential (Fermi level):    -7.91074881 eV
  Writing Kohn-Sham eigenvalues.
  K-point:       1 at    0.000000    0.000000    0.000000 (in units of recip. lattice)

  State    Occupation    Eigenvalue [Ha]    Eigenvalue [eV]
      1       2.00000        -304.769695        -8293.20536
      2       2.00000        -304.769695        -8293.20536
      3       2.00000        -304.769695        -8293.20536
      4       2.00000         -88.723887        -2414.29981
      5       2.00000         -88.723887        -2414.29981
      6       2.00000         -36.159395         -983.94720
      7       2.00000         -36.159395         -983.94720
      8       2.00000         -36.159395         -983.94720
      9       2.00000         -31.107048         -846.46585
     10       2.00000         -31.107048         -846.46585
     11       2.00000         -31.107048         -846.46585
     12       2.00000         -31.107015         -846.46495
     13       2.00000         -31.107015         -846.46495
     14       2.00000         -31.107015         -846.46495
     15       2.00000         -31.106788         -846.45876
     16       2.00000         -31.106788         -846.45876
     17       2.00000         -31.106788         -846.45876
     18       2.00000          -7.829521         -213.05210
     19       2.00000          -7.829521         -213.05210
     20       2.00000          -5.799351         -157.80836
     21       2.00000          -5.799351         -157.80836
     22       2.00000          -5.799351         -157.80836
     23       2.00000          -5.799351         -157.80836
     24       2.00000          -5.799182         -157.80378
     25       2.00000          -5.799182         -157.80377
     26       2.00000          -4.115432         -111.98659
     27       2.00000          -4.114894         -111.97196
     28       2.00000          -4.114894         -111.97196
     29       2.00000          -2.660990          -72.40922
     30       2.00000          -2.660990          -72.40922
     31       2.00000          -2.660869          -72.40593
     32       2.00000          -2.658553          -72.34292
     33       2.00000          -2.658553          -72.34292
     34       2.00000          -2.658211          -72.33361
     35       2.00000          -2.655967          -72.27255
     36       2.00000          -2.655967          -72.27254
     37       2.00000          -2.655131          -72.24979
     38       2.00000          -0.824844          -22.44515
     39       2.00000          -0.751673          -20.45407
     40       2.00000          -0.481600          -13.10499
     41       2.00000          -0.481600          -13.10499
     42       2.00000          -0.479789          -13.05573
     43       2.00000          -0.460375          -12.52744
     44       2.00000          -0.460375          -12.52744
     45       2.00000          -0.440027          -11.97375
     46       2.00000          -0.424720          -11.55723
     47       2.00000          -0.386088          -10.50600
     48       2.00000          -0.386088          -10.50600
     49       2.00000          -0.380086          -10.34268
     50       2.00000          -0.373218          -10.15577
     51       2.00000          -0.373218          -10.15577
     52       2.00000          -0.362835           -9.87323
     53       2.00000          -0.362834           -9.87323
     54       2.00000          -0.339522           -9.23886
     55       2.00000          -0.339522           -9.23886
     56       2.00000          -0.338734           -9.21742
     57       2.00000          -0.326615           -8.88765
     58       0.00000          -0.232400           -6.32393
     59       0.00000          -0.232400           -6.32393
     60       0.00000          -0.229790           -6.25292
     61       0.00000          -0.196881           -5.35740
     62       0.00000          -0.196880           -5.35737
     63       0.00000          -0.182999           -4.97967
     64       0.00000           0.028513            0.77589
     65       0.00000           0.028515            0.77594
     66       0.00000           0.034391            0.93582
     67       0.00000           0.076177            2.07289
     68       0.00000           0.076189            2.07321
     69       0.00000           0.172857            4.70368
     70       0.00000           0.172863            4.70384
     71       0.00000           0.206542            5.62028
     72       0.00000           0.248907            6.77312
     73       0.00000           0.266497            7.25174
     74       0.00000           0.266526            7.25255
     75       0.00000           0.286796            7.80412
     76       0.00000           0.338415            9.20874
     77       0.00000           0.338433            9.20924
     78       0.00000           0.393872           10.71779
     79       0.00000           0.563115           15.32313
     80       0.00000           0.568752           15.47654
     81       0.00000           0.568755           15.47662

  What follows are estimated values for band gap, HOMO, LUMO, etc.
  | They are estimated on a discrete k-point grid and not necessarily exact.
  | For converged numbers, create a DOS and/or band structure plot on a denser k-grid.

  Highest occupied state (VBM) at     -7.91240920 eV (relative to internal zero)
  | Occupation number:      1.18564778
  | K-point:     406 at    0.052632    0.789474    0.684211 (in units of recip. lattice)

  Lowest unoccupied state (CBM) at    -7.90905388 eV (relative to internal zero)
  | Occupation number:      0.81056392
  | K-point:      43 at    0.000000    0.157895    0.315789 (in units of recip. lattice)

  ESTIMATED overall HOMO-LUMO gap:      0.00335532 eV between HOMO at k-point 406 and LUMO at k-point 43
  | This appears to be an indirect band gap.
  | Smallest direct gap :      0.10925950 eV for k_point 1911 at    0.000000    0.157895    0.315789 (in units of recip. lattice)
  However, this system has fractional occupation numbers. Since we use a finite k-point grid,
  this material is metallic within the approximate finite broadening function (occupation_type)
  applied to determine the occupation numbers.
  Calculating total energy contributions from superposition of free atom densities.

  Total energy components:
  | Sum of eigenvalues            :       -3152.14271668 Ha      -85774.16746258 eV
  | XC energy correction          :        -242.39667157 Ha       -6595.94903164 eV
  | XC potential correction       :         314.55133403 Ha        8559.37729532 eV
  | Free-atom electrostatic energy:       -2302.23077807 Ha      -62646.88690981 eV
  | Hartree energy correction     :           0.00000000 Ha           0.00000000 eV
  | Entropy correction            :          -0.00000148 Ha          -0.00004033 eV
  | ---------------------------
  | Total energy                  :       -5382.21883229 Ha     -146457.62610872 eV
  | Total energy, T -> 0          :       -5382.21883378 Ha     -146457.62614904 eV  <-- do not rely on this value for anything but (periodic) metals
  | Electronic free energy        :       -5382.21883526 Ha     -146457.62618937 eV

  Derived energy quantities:
  | Kinetic energy                :        5449.92873896 Ha      148300.10641344 eV
  | Electrostatic energy          :      -10589.75089968 Ha     -288161.78349051 eV
  | Energy correction for multipole
  | error in Hartree potential    :           0.00000000 Ha           0.00000000 eV
  | Sum of eigenvalues per atom                           :      -17154.83349252 eV
  | Total energy (T->0) per atom                          :      -29291.52522981 eV  <-- do not rely on this value for anything but (periodic) metals
  | Electronic free energy per atom                       :      -29291.52523787 eV
  Initialize hartree_potential_storage
  Max. number of atoms included in rho_multipole:            5

  End scf initialization - timings             :  max(cpu_time)    wall_clock(cpu1)
  | Time for scf. initialization               :        7.141 s           7.178 s
  | Boundary condition initialization          :        0.176 s           0.177 s
  | Integration                                :        2.979 s           2.980 s
  | Solution of K.-S. eqns.                    :        2.917 s           2.941 s
  | Grid partitioning                          :        0.146 s           0.146 s
  | Preloading free-atom quantities on grid    :        0.022 s           0.022 s
  | Free-atom superposition energy             :        0.057 s           0.057 s
  | Total energy evaluation                    :        0.009 s           0.009 s

  Partial memory accounting:
  | Current value for overall tracked memory usage:
  |   Minimum:       41.031 MB (on task  0)
  |   Maximum:       41.241 MB (on task  1)
  |   Average:       41.224 MB
  | Peak value for overall tracked memory usage:
  |   Minimum:       60.374 MB (on task  9 after allocating wave)
  |   Maximum:       66.996 MB (on task 21 after allocating wave)
  |   Average:       61.474 MB
  | Largest tracked array allocation so far:
  |   Minimum:       29.836 MB (KS_eigenvector_complex on task  0)
  |   Maximum:       30.046 MB (KS_eigenvector_complex on task  1)
  |   Average:       30.029 MB
  Note:  These values currently only include a subset of arrays which are explicitly tracked.
  The "true" memory usage will be greater.
------------------------------------------------------------

------------------------------------------------------------
          Begin self-consistency iteration #    1

  Date     :  20200320, Time     :  115735.041
------------------------------------------------------------
  Evaluating new KS density using the density matrix
  Evaluating density matrix
  Time summed over all CPUs for getting density from density matrix: real work       70.396 s, elapsed       72.485 s
  Integration grid: deviation in total charge (<rho> - N_e) =  -5.878036E-10
  Pulay mixing of updated and previous charge densities.
  Renormalizing the density to the exact electron count on the 3D integration grid.
  | Formal number of electrons (from input files) :     116.0000000000
  | Integrated number of electrons on 3D grid     :     115.9994914851
  | Charge integration error                      :      -0.0005085149
  | Normalization factor for density and gradient :       1.0000043838

  Evaluating partitioned Hartree potential by multipole expansion.
  | Original multipole sum: apparent total charge =   0.100728E-13
  | Sum of charges compensated after spline to logarithmic grids =   0.281454E-07
  | Analytical far-field extrapolation by fixed multipoles:
  | Hartree multipole sum: apparent total charge =   0.100805E-13
  Summing up the Hartree potential.
  Time summed over all CPUs for potential: real work       11.455 s, elapsed       12.164 s
  | RMS charge density error from multipole expansion :   0.392947E-03
  | Average real-space part of the electrostatic potential :      0.03932793 eV

  Integrating Hamiltonian matrix: batch-based integration.
  Time summed over all CPUs for integration: real work       37.437 s, elapsed       38.755 s

  Updating Kohn-Sham eigenvalues and eigenvectors using ELSI and the (modified) LAPACK eigensolver.
  Starting LAPACK eigensolver
  Finished Cholesky decomposition
  | Time :     0.000 s
  Finished transformation to standard eigenproblem
  | Time :     0.002 s
  Finished solving standard eigenproblem
  | Time :     0.006 s
  Finished back-transformation of eigenvectors
  | Time :     0.000 s

  Obtaining occupation numbers and chemical potential using ELSI.
  | Chemical potential (Fermi level):    -7.70370880 eV
  Writing Kohn-Sham eigenvalues.
  K-point:       1 at    0.000000    0.000000    0.000000 (in units of recip. lattice)

  State    Occupation    Eigenvalue [Ha]    Eigenvalue [eV]
      1       2.00000        -304.747055        -8292.58929
      2       2.00000        -304.747055        -8292.58929
      3       2.00000        -304.747055        -8292.58929
      4       2.00000         -88.730779        -2414.48734
      5       2.00000         -88.730779        -2414.48734
      6       2.00000         -36.137523         -983.35204
      7       2.00000         -36.137523         -983.35204
      8       2.00000         -36.137523         -983.35204
      9       2.00000         -31.085122         -845.86921
     10       2.00000         -31.085122         -845.86921
     11       2.00000         -31.085122         -845.86921
     12       2.00000         -31.085018         -845.86639
     13       2.00000         -31.085018         -845.86638
     14       2.00000         -31.085018         -845.86638
     15       2.00000         -31.084498         -845.85224
     16       2.00000         -31.084498         -845.85224
     17       2.00000         -31.084498         -845.85224
     18       2.00000          -7.834912         -213.19879
     19       2.00000          -7.834911         -213.19879
     20       2.00000          -5.804855         -157.95814
     21       2.00000          -5.804855         -157.95814
     22       2.00000          -5.804855         -157.95814
     23       2.00000          -5.804855         -157.95814
     24       2.00000          -5.804738         -157.95495
     25       2.00000          -5.804738         -157.95495
     26       2.00000          -4.100584         -111.58258
     27       2.00000          -4.100041         -111.56779
     28       2.00000          -4.100041         -111.56779
     29       2.00000          -2.646834          -72.02402
     30       2.00000          -2.646834          -72.02402
     31       2.00000          -2.646637          -72.01866
     32       2.00000          -2.644299          -71.95504
     33       2.00000          -2.644299          -71.95504
     34       2.00000          -2.644013          -71.94726
     35       2.00000          -2.641433          -71.87704
     36       2.00000          -2.641433          -71.87704
     37       2.00000          -2.640595          -71.85425
     38       2.00000          -0.825648          -22.46704
     39       2.00000          -0.752780          -20.48419
     40       2.00000          -0.479655          -13.05207
     41       2.00000          -0.479655          -13.05207
     42       2.00000          -0.477581          -12.99565
     43       2.00000          -0.454662          -12.37197
     44       2.00000          -0.454662          -12.37197
     45       2.00000          -0.435343          -11.84628
     46       2.00000          -0.414035          -11.26646
     47       2.00000          -0.375065          -10.20605
     48       2.00000          -0.375065          -10.20604
     49       2.00000          -0.369015          -10.04142
     50       2.00000          -0.362655           -9.86835
     51       2.00000          -0.362655           -9.86834
     52       2.00000          -0.352067           -9.58023
     53       2.00000          -0.352067           -9.58023
     54       2.00000          -0.329661           -8.97052
     55       2.00000          -0.329067           -8.95436
     56       2.00000          -0.329067           -8.95436
     57       2.00000          -0.314469           -8.55714
     58       0.00000          -0.227518           -6.19107
     59       0.00000          -0.227517           -6.19107
     60       0.00000          -0.223843           -6.09107
     61       0.00000          -0.193455           -5.26418
     62       0.00000          -0.193454           -5.26415
     63       0.00000          -0.182187           -4.95755
     64       0.00000           0.029861            0.81255
     65       0.00000           0.029862            0.81260
     66       0.00000           0.035500            0.96601
     67       0.00000           0.077663            2.11333
     68       0.00000           0.077675            2.11365
     69       0.00000           0.174101            4.73752
     70       0.00000           0.174106            4.73767
     71       0.00000           0.205528            5.59270
     72       0.00000           0.249538            6.79028
     73       0.00000           0.266466            7.25092
     74       0.00000           0.266496            7.25173
     75       0.00000           0.288591            7.85295
     76       0.00000           0.339454            9.23700
     77       0.00000           0.339473            9.23752
     78       0.00000           0.395764           10.76929
     79       0.00000           0.565632           15.39164
     80       0.00000           0.568847           15.47911
     81       0.00000           0.568850           15.47921

  What follows are estimated values for band gap, HOMO, LUMO, etc.
  | They are estimated on a discrete k-point grid and not necessarily exact.
  | For converged numbers, create a DOS and/or band structure plot on a denser k-grid.

  Highest occupied state (VBM) at     -7.70404592 eV (relative to internal zero)
  | Occupation number:      1.03802503
  | K-point:    2903 at    0.684211    0.105263    0.947368 (in units of recip. lattice)

  Lowest unoccupied state (CBM) at    -7.70286980 eV (relative to internal zero)
  | Occupation number:      0.90555036
  | K-point:    1311 at    0.263158    0.157895    0.157895 (in units of recip. lattice)

  ESTIMATED overall HOMO-LUMO gap:      0.00117612 eV between HOMO at k-point 2903 and LUMO at k-point 1311
  | This appears to be an indirect band gap.
  | Smallest direct gap :      0.10610293 eV for k_point 1911 at    0.263158    0.157895    0.157895 (in units of recip. lattice)
  However, this system has fractional occupation numbers. Since we use a finite k-point grid,
  this material is metallic within the approximate finite broadening function (occupation_type)
  applied to determine the occupation numbers.

  Total energy components:
  | Sum of eigenvalues            :       -3150.94031688 Ha      -85741.44849910 eV
  | XC energy correction          :        -242.45769729 Ha       -6597.60962594 eV
  | XC potential correction       :         314.63121267 Ha        8561.55090368 eV
  | Free-atom electrostatic energy:       -2302.23077807 Ha      -62646.88690981 eV
  | Hartree energy correction     :          -1.19691148 Ha         -32.56961843 eV
  | Entropy correction            :          -0.00000149 Ha          -0.00004046 eV
  | ---------------------------
  | Total energy                  :       -5382.19449104 Ha     -146456.96374960 eV
  | Total energy, T -> 0          :       -5382.19449253 Ha     -146456.96379006 eV  <-- do not rely on this value for anything but (periodic) metals
  | Electronic free energy        :       -5382.19449402 Ha     -146456.96383052 eV

  Derived energy quantities:
  | Kinetic energy                :        5450.46221715 Ha      148314.62309369 eV
  | Electrostatic energy          :      -10590.19901091 Ha     -288173.97721735 eV
  | Energy correction for multipole
  | error in Hartree potential    :          -0.00007869 Ha          -0.00214113 eV
  | Sum of eigenvalues per atom                           :      -17148.28969982 eV
  | Total energy (T->0) per atom                          :      -29291.39275801 eV  <-- do not rely on this value for anything but (periodic) metals
  | Electronic free energy per atom                       :      -29291.39276610 eV

  Self-consistency convergence accuracy:
  | Change of charge density      :  0.4590E+00
  | Change of sum of eigenvalues  :  0.3272E+02 eV
  | Change of total energy        :  0.6624E+00 eV

  End self-consistency iteration #     1       :  max(cpu_time)    wall_clock(cpu1)
  | Time for this iteration                    :        8.250 s           8.251 s
  | Charge density update                      :        3.645 s           3.645 s
  | Density mixing & preconditioning           :        0.236 s           0.236 s
  | Hartree multipole update                   :        0.002 s           0.002 s
  | Hartree multipole summation                :        0.518 s           0.518 s
  | Integration                                :        1.636 s           1.636 s
  | Solution of K.-S. eqns.                    :        2.201 s           2.202 s
  | Total energy evaluation                    :        0.008 s           0.008 s

  Partial memory accounting:
  | Current value for overall tracked memory usage:
  |   Minimum:       41.031 MB (on task  0)
  |   Maximum:       41.241 MB (on task  1)
  |   Average:       41.224 MB
  | Peak value for overall tracked memory usage:
  |   Minimum:       62.268 MB (on task  9 after allocating gradient_basis_wave)
  |   Maximum:       69.618 MB (on task 21 after allocating gradient_basis_wave)
  |   Average:       63.496 MB
  | Largest tracked array allocation so far:
  |   Minimum:       29.836 MB (KS_eigenvector_complex on task  0)
  |   Maximum:       30.046 MB (KS_eigenvector_complex on task  1)
  |   Average:       30.029 MB
  Note:  These values currently only include a subset of arrays which are explicitly tracked.
  The "true" memory usage will be greater.
------------------------------------------------------------

------------------------------------------------------------
          Begin self-consistency iteration #    2

  Date     :  20200320, Time     :  115743.293
------------------------------------------------------------
  Evaluating new KS density using the density matrix
  Evaluating density matrix
  Time summed over all CPUs for getting density from density matrix: real work       70.378 s, elapsed       72.561 s
  Integration grid: deviation in total charge (<rho> - N_e) =  -5.877610E-10
  Pulay mixing of updated and previous charge densities.
  Renormalizing the density to the exact electron count on the 3D integration grid.
  | Formal number of electrons (from input files) :     116.0000000000
  | Integrated number of electrons on 3D grid     :     115.9982060935
  | Charge integration error                      :      -0.0017939065
  | Normalization factor for density and gradient :       1.0000154650

  Evaluating partitioned Hartree potential by multipole expansion.
  | Original multipole sum: apparent total charge =  -0.222794E-13
  | Sum of charges compensated after spline to logarithmic grids =   0.108333E-06
  | Analytical far-field extrapolation by fixed multipoles:
  | Hartree multipole sum: apparent total charge =  -0.222179E-13
  Summing up the Hartree potential.
  Time summed over all CPUs for potential: real work       12.315 s, elapsed       13.030 s
  | RMS charge density error from multipole expansion :   0.174891E-02
  | Average real-space part of the electrostatic potential :      0.16178752 eV

  Integrating Hamiltonian matrix: batch-based integration.
  Time summed over all CPUs for integration: real work       37.354 s, elapsed       38.692 s

  Updating Kohn-Sham eigenvalues and eigenvectors using ELSI and the (modified) LAPACK eigensolver.
  Starting LAPACK eigensolver
  Finished Cholesky decomposition
  | Time :     0.000 s
  Finished transformation to standard eigenproblem
  | Time :     0.002 s
  Finished solving standard eigenproblem
  | Time :     0.006 s
  Finished back-transformation of eigenvectors
  | Time :     0.000 s

  Obtaining occupation numbers and chemical potential using ELSI.
  | Chemical potential (Fermi level):    -7.02670835 eV
  What follows are estimated values for band gap, HOMO, LUMO, etc.
  | They are estimated on a discrete k-point grid and not necessarily exact.
  | For converged numbers, create a DOS and/or band structure plot on a denser k-grid.

  Highest occupied state (VBM) at     -7.02723388 eV (relative to internal zero)
  | Occupation number:      1.05924502
  | K-point:    3114 at    0.789474    0.473684    0.368421 (in units of recip. lattice)

  Lowest unoccupied state (CBM) at    -7.02654084 eV (relative to internal zero)
  | Occupation number:      0.98110061
  | K-point:     719 at    0.105263    0.947368    0.684211 (in units of recip. lattice)

  ESTIMATED overall HOMO-LUMO gap:      0.00069304 eV between HOMO at k-point 3114 and LUMO at k-point 719
  | This appears to be an indirect band gap.
  | Smallest direct gap :      0.10536721 eV for k_point 1911 at    0.105263    0.947368    0.684211 (in units of recip. lattice)
  However, this system has fractional occupation numbers. Since we use a finite k-point grid,
  this material is metallic within the approximate finite broadening function (occupation_type)
  applied to determine the occupation numbers.

  Total energy components:
  | Sum of eigenvalues            :       -3147.57496571 Ha      -85649.87263461 eV
  | XC energy correction          :        -242.62774444 Ha       -6602.23684435 eV
  | XC potential correction       :         314.85374096 Ha        8567.60620652 eV
  | Free-atom electrostatic energy:       -2302.23077807 Ha      -62646.88690981 eV
  | Hartree energy correction     :          -4.57769571 Ha        -124.56543819 eV
  | Entropy correction            :          -0.00000205 Ha          -0.00005565 eV
  | ---------------------------
  | Total energy                  :       -5382.15744298 Ha     -146455.95562044 eV
  | Total energy, T -> 0          :       -5382.15744502 Ha     -146455.95567609 eV  <-- do not rely on this value for anything but (periodic) metals
  | Electronic free energy        :       -5382.15744707 Ha     -146455.95573174 eV

  Derived energy quantities:
  | Kinetic energy                :        5451.77378183 Ha      148350.31258442 eV
  | Electrostatic energy          :      -10591.30348037 Ha     -288204.03136052 eV
  | Energy correction for multipole
  | error in Hartree potential    :          -0.00033969 Ha          -0.00924346 eV
  | Sum of eigenvalues per atom                           :      -17129.97452692 eV
  | Total energy (T->0) per atom                          :      -29291.19113522 eV  <-- do not rely on this value for anything but (periodic) metals
  | Electronic free energy per atom                       :      -29291.19114635 eV

  Self-consistency convergence accuracy:
  | Change of charge density      :  0.3677E+00
  | Change of sum of eigenvalues  :  0.9158E+02 eV
  | Change of total energy        :  0.1008E+01 eV

  End self-consistency iteration #     2       :  max(cpu_time)    wall_clock(cpu1)
  | Time for this iteration                    :        8.302 s           8.302 s
  | Charge density update                      :        3.650 s           3.650 s
  | Density mixing & preconditioning           :        0.245 s           0.245 s
  | Hartree multipole update                   :        0.002 s           0.002 s
  | Hartree multipole summation                :        0.556 s           0.557 s
  | Integration                                :        1.632 s           1.631 s
  | Solution of K.-S. eqns.                    :        2.205 s           2.206 s
  | Total energy evaluation                    :        0.008 s           0.008 s

  Partial memory accounting:
  | Current value for overall tracked memory usage:
  |   Minimum:       41.032 MB (on task  0)
  |   Maximum:       41.242 MB (on task  1)
  |   Average:       41.225 MB
  | Peak value for overall tracked memory usage:
  |   Minimum:       62.268 MB (on task  9 after allocating gradient_basis_wave)
  |   Maximum:       69.618 MB (on task 21 after allocating gradient_basis_wave)
  |   Average:       63.496 MB
  | Largest tracked array allocation so far:
  |   Minimum:       29.836 MB (KS_eigenvector_complex on task  0)
  |   Maximum:       30.046 MB (KS_eigenvector_complex on task  1)
  |   Average:       30.029 MB
  Note:  These values currently only include a subset of arrays which are explicitly tracked.
  The "true" memory usage will be greater.
------------------------------------------------------------

------------------------------------------------------------
          Begin self-consistency iteration #    3

  Date     :  20200320, Time     :  115751.595
------------------------------------------------------------
  Evaluating new KS density using the density matrix
  Evaluating density matrix
  Time summed over all CPUs for getting density from density matrix: real work       70.336 s, elapsed       72.575 s
  Integration grid: deviation in total charge (<rho> - N_e) =  -5.876473E-10
  Pulay mixing of updated and previous charge densities.
  Renormalizing the density to the exact electron count on the 3D integration grid.
  | Formal number of electrons (from input files) :     116.0000000000
  | Integrated number of electrons on 3D grid     :     115.9958881104
  | Charge integration error                      :      -0.0041118896
  | Normalization factor for density and gradient :       1.0000354486

  Evaluating partitioned Hartree potential by multipole expansion.
  | Original multipole sum: apparent total charge =  -0.184237E-13
  | Sum of charges compensated after spline to logarithmic grids =   0.240897E-06
  | Analytical far-field extrapolation by fixed multipoles:
  | Hartree multipole sum: apparent total charge =  -0.186697E-13
  Summing up the Hartree potential.
  Time summed over all CPUs for potential: real work       12.904 s, elapsed       13.661 s
  | RMS charge density error from multipole expansion :   0.446586E-02
  | Average real-space part of the electrostatic potential :      0.28053471 eV

  Integrating Hamiltonian matrix: batch-based integration.
  Time summed over all CPUs for integration: real work       37.483 s, elapsed       38.841 s

  Updating Kohn-Sham eigenvalues and eigenvectors using ELSI and the (modified) LAPACK eigensolver.
  Starting LAPACK eigensolver
  Finished Cholesky decomposition
  | Time :     0.000 s
  Finished transformation to standard eigenproblem
  | Time :     0.002 s
  Finished solving standard eigenproblem
  | Time :     0.006 s
  Finished back-transformation of eigenvectors
  | Time :     0.000 s

  Obtaining occupation numbers and chemical potential using ELSI.
  | Chemical potential (Fermi level):    -6.93010063 eV
  What follows are estimated values for band gap, HOMO, LUMO, etc.
  | They are estimated on a discrete k-point grid and not necessarily exact.
  | For converged numbers, create a DOS and/or band structure plot on a denser k-grid.

  Highest occupied state (VBM) at     -6.93062808 eV (relative to internal zero)
  | Occupation number:      1.05946125
  | K-point:    1077 at    0.210526    0.263158    0.894737 (in units of recip. lattice)

  Lowest unoccupied state (CBM) at    -6.92982590 eV (relative to internal zero)
  | Occupation number:      0.96900736
  | K-point:    2460 at    0.473684    0.368421    0.789474 (in units of recip. lattice)

  ESTIMATED overall HOMO-LUMO gap:      0.00080218 eV between HOMO at k-point 1077 and LUMO at k-point 2460
  | This appears to be an indirect band gap.
  | Smallest direct gap :      0.17262278 eV for k_point 3142 at    0.473684    0.368421    0.789474 (in units of recip. lattice)
  However, this system has fractional occupation numbers. Since we use a finite k-point grid,
  this material is metallic within the approximate finite broadening function (occupation_type)
  applied to determine the occupation numbers.

  Checking to see if s.c.f. parameters should be adjusted.
  Adjusted the Pulay mixing parameter (charge_mix_param) for an expected low-gap system. New value:   0.020000 .
  Adjusted the occupation broadening width for an expected low-gap system. New value:      0.05000000 eV.

  Total energy components:
  | Sum of eigenvalues            :       -3147.90623475 Ha      -85658.88692375 eV
  | XC energy correction          :        -242.58139677 Ha       -6600.97566016 eV
  | XC potential correction       :         314.79270396 Ha        8565.94530538 eV
  | Free-atom electrostatic energy:       -2302.23077807 Ha      -62646.88690981 eV
  | Hartree energy correction     :          -4.22512525 Ha        -114.97150765 eV
  | Entropy correction            :          -0.00005050 Ha          -0.00137414 eV
  | ---------------------------
  | Total energy                  :       -5382.15083088 Ha     -146455.77569599 eV
  | Total energy, T -> 0          :       -5382.15088138 Ha     -146455.77707014 eV  <-- do not rely on this value for anything but (periodic) metals
  | Electronic free energy        :       -5382.15093187 Ha     -146455.77844428 eV

  Derived energy quantities:
  | Kinetic energy                :        5449.85470133 Ha      148298.09174703 eV
  | Electrostatic energy          :      -10589.42413543 Ha     -288152.89178287 eV
  | Energy correction for multipole
  | error in Hartree potential    :          -0.00077491 Ha          -0.02108631 eV
  | Sum of eigenvalues per atom                           :      -17131.77738475 eV
  | Total energy (T->0) per atom                          :      -29291.15541403 eV  <-- do not rely on this value for anything but (periodic) metals
  | Electronic free energy per atom                       :      -29291.15568886 eV

  Self-consistency convergence accuracy:
  | Change of charge density      :  0.2094E+00
  | Change of sum of eigenvalues  : -0.9014E+01 eV
  | Change of total energy        :  0.1799E+00 eV

  End self-consistency iteration #     3       :  max(cpu_time)    wall_clock(cpu1)
  | Time for this iteration                    :        8.340 s           8.340 s
  | Charge density update                      :        3.650 s           3.650 s
[...]
  | Formal number of electrons (from input files) :     116.0000000000
  | Integrated number of electrons on 3D grid     :     115.9999999981
  | Charge integration error                      :      -0.0000000019
  | Normalization factor for density and gradient :       1.0000000000

  Evaluating partitioned Hartree potential by multipole expansion.
  | Original multipole sum: apparent total charge =  -0.651840E-15
  | Sum of charges compensated after spline to logarithmic grids =   0.379997E-06
  | Analytical far-field extrapolation by fixed multipoles:
  | Hartree multipole sum: apparent total charge =  -0.442759E-15
  Summing up the Hartree potential.
  Time summed over all CPUs for potential: real work       13.174 s, elapsed       13.935 s
  | RMS charge density error from multipole expansion :   0.743699E-02
  | Average real-space part of the electrostatic potential :      0.41461700 eV

  Integrating Hamiltonian matrix: batch-based integration.
  Time summed over all CPUs for integration: real work       37.410 s, elapsed       38.797 s

  Updating Kohn-Sham eigenvalues and eigenvectors using ELSI and the (modified) LAPACK eigensolver.
  Starting LAPACK eigensolver
  Finished Cholesky decomposition
  | Time :     0.001 s
  Finished transformation to standard eigenproblem
  | Time :     0.001 s
  Finished solving standard eigenproblem
  | Time :     0.006 s
  Finished back-transformation of eigenvectors
  | Time :     0.001 s

  Obtaining occupation numbers and chemical potential using ELSI.
  | Chemical potential (Fermi level):    -6.74973988 eV
  What follows are estimated values for band gap, HOMO, LUMO, etc.
  | They are estimated on a discrete k-point grid and not necessarily exact.
  | For converged numbers, create a DOS and/or band structure plot on a denser k-grid.

  Highest occupied state (VBM) at     -6.75037844 eV (relative to internal zero)
  | Occupation number:      1.01440992
  | K-point:    2903 at    0.684211    0.105263    0.947368 (in units of recip. lattice)

  Lowest unoccupied state (CBM) at    -6.74538361 eV (relative to internal zero)
  | Occupation number:      0.90193757
  | K-point:    3429 at    0.947368    0.947368    0.684211 (in units of recip. lattice)

  ESTIMATED overall HOMO-LUMO gap:      0.00499483 eV between HOMO at k-point 2903 and LUMO at k-point 3429
  | This appears to be an indirect band gap.
  | Smallest direct gap :      0.15854685 eV for k_point 2859 at    0.947368    0.947368    0.684211 (in units of recip. lattice)
  However, this system has fractional occupation numbers. Since we use a finite k-point grid,
  this material is metallic within the approximate finite broadening function (occupation_type)
  applied to determine the occupation numbers.

  Total energy components:
  | Sum of eigenvalues            :       -3147.69906770 Ha      -85653.24962135 eV
  | XC energy correction          :        -242.58224790 Ha       -6600.99882050 eV
  | XC potential correction       :         314.79277516 Ha        8565.94724262 eV
  | Free-atom electrostatic energy:       -2302.23077807 Ha      -62646.88690981 eV
  | Hartree energy correction     :          -4.42973047 Ha        -120.53909893 eV
  | Entropy correction            :          -0.00004867 Ha          -0.00132444 eV
  | ---------------------------
  | Total energy                  :       -5382.14904898 Ha     -146455.72720797 eV
  | Total energy, T -> 0          :       -5382.14909765 Ha     -146455.72853242 eV  <-- do not rely on this value for anything but (periodic) metals
  | Electronic free energy        :       -5382.14914632 Ha     -146455.72985686 eV

  Derived energy quantities:
  | Kinetic energy                :        5448.28627198 Ha      148255.41261302 eV
  | Electrostatic energy          :      -10587.85307306 Ha     -288110.14100049 eV
  | Energy correction for multipole
  | error in Hartree potential    :          -0.00097121 Ha          -0.02642806 eV
  | Sum of eigenvalues per atom                           :      -17130.64992427 eV
  | Total energy (T->0) per atom                          :      -29291.14570648 eV  <-- do not rely on this value for anything but (periodic) metals
  | Electronic free energy per atom                       :      -29291.14597137 eV

  Self-consistency convergence accuracy:
  | Change of charge density      :  0.5015E-06
  | Change of sum of eigenvalues  :  0.1598E-06 eV
  | Change of total energy        : -0.2965E-07 eV

  Preliminary charge convergence reached. Turning off preconditioner.

  Writing Kohn-Sham eigenvalues.
  K-point:       1 at    0.000000    0.000000    0.000000 (in units of recip. lattice)

  State    Occupation    Eigenvalue [Ha]    Eigenvalue [eV]
      1       2.00000        -304.714459        -8291.70229
      2       2.00000        -304.714458        -8291.70229
      3       2.00000        -304.714458        -8291.70229
      4       2.00000         -88.761017        -2415.31016
      5       2.00000         -88.761017        -2415.31016
      6       2.00000         -36.096127         -982.22560
      7       2.00000         -36.096127         -982.22558
      8       2.00000         -36.096127         -982.22558
      9       2.00000         -31.047023         -844.83248
     10       2.00000         -31.047022         -844.83246
     11       2.00000         -31.047022         -844.83246
     12       2.00000         -31.045973         -844.80390
     13       2.00000         -31.045972         -844.80388
     14       2.00000         -31.045972         -844.80388
     15       2.00000         -31.041638         -844.68594
     16       2.00000         -31.041637         -844.68593
     17       2.00000         -31.041637         -844.68593
     18       2.00000          -7.860178         -213.88633
     19       2.00000          -7.860178         -213.88633
     20       2.00000          -5.830707         -158.66160
     21       2.00000          -5.830707         -158.66160
     22       2.00000          -5.830315         -158.65095
     23       2.00000          -5.830315         -158.65095
     24       2.00000          -5.830315         -158.65094
     25       2.00000          -5.830315         -158.65094
     26       2.00000          -4.044394         -110.05357
     27       2.00000          -4.043835         -110.03835
     28       2.00000          -4.043835         -110.03834
     29       2.00000          -2.594342          -70.59563
     30       2.00000          -2.594341          -70.59562
     31       2.00000          -2.592895          -70.55626
     32       2.00000          -2.591473          -70.51756
     33       2.00000          -2.590550          -70.49246
     34       2.00000          -2.590550          -70.49245
     35       2.00000          -2.582329          -70.26876
     36       2.00000          -2.582329          -70.26875
     37       2.00000          -2.581467          -70.24528
     38       2.00000          -0.824499          -22.43577
     39       2.00000          -0.753195          -20.49547
     40       2.00000          -0.470252          -12.79621
     41       2.00000          -0.470249          -12.79613
     42       2.00000          -0.467781          -12.72898
     43       2.00000          -0.432001          -11.75535
     44       2.00000          -0.431999          -11.75529
     45       2.00000          -0.418208          -11.38003
     46       2.00000          -0.370156          -10.07245
     47       2.00000          -0.330308           -8.98815
     48       2.00000          -0.330308           -8.98815
     49       2.00000          -0.324121           -8.81979
     50       2.00000          -0.323414           -8.80053
     51       2.00000          -0.323413           -8.80050
     52       2.00000          -0.309167           -8.41287
     53       2.00000          -0.309166           -8.41283
     54       2.00000          -0.289655           -7.88192
     55       2.00000          -0.283934           -7.72623
     56       2.00000          -0.283933           -7.72620
     57       2.00000          -0.266442           -7.25025
     58       0.00000          -0.203437           -5.53580
     59       0.00000          -0.203436           -5.53577
     60       0.00000          -0.196516           -5.34746
     61       0.00000          -0.174794           -4.75640
     62       0.00000          -0.174792           -4.75634
     63       0.00000          -0.173565           -4.72295
     64       0.00000           0.038534            1.04856
     65       0.00000           0.038535            1.04858
     66       0.00000           0.042436            1.15475
     67       0.00000           0.087422            2.37888
     68       0.00000           0.087438            2.37931
     69       0.00000           0.182594            4.96865
     70       0.00000           0.182598            4.96874
     71       0.00000           0.205148            5.58237
     72       0.00000           0.254048            6.91298
     73       0.00000           0.270140            7.35090
     74       0.00000           0.270173            7.35179
     75       0.00000           0.299428            8.14786
     76       0.00000           0.346462            9.42772
     77       0.00000           0.346483            9.42828
     78       0.00000           0.407007           11.07523
     79       0.00000           0.572436           15.57678
     80       0.00000           0.572442           15.57694
     81       0.00000           0.577534           15.71550

  What follows are estimated values for band gap, HOMO, LUMO, etc.
  | They are estimated on a discrete k-point grid and not necessarily exact.
  | For converged numbers, create a DOS and/or band structure plot on a denser k-grid.

  Highest occupied state (VBM) at     -6.75037844 eV (relative to internal zero)
  | Occupation number:      1.01440992
  | K-point:    2903 at    0.684211    0.105263    0.947368 (in units of recip. lattice)

  Lowest unoccupied state (CBM) at    -6.74538361 eV (relative to internal zero)
  | Occupation number:      0.90193757
  | K-point:    3429 at    0.947368    0.947368    0.684211 (in units of recip. lattice)

  ESTIMATED overall HOMO-LUMO gap:      0.00499483 eV between HOMO at k-point 2903 and LUMO at k-point 3429
  | This appears to be an indirect band gap.
  | Smallest direct gap :      0.15854685 eV for k_point 2859 at    0.947368    0.947368    0.684211 (in units of recip. lattice)
  However, this system has fractional occupation numbers. Since we use a finite k-point grid,
  this material is metallic within the approximate finite broadening function (occupation_type)
  applied to determine the occupation numbers.

  Self-consistency cycle converged.

  End self-consistency iteration #    26       :  max(cpu_time)    wall_clock(cpu1)
  | Time for this iteration                    :        8.335 s           8.335 s
  | Charge density update                      :        3.651 s           3.650 s
  | Density mixing                             :        0.228 s           0.229 s
  | Hartree multipole update                   :        0.002 s           0.002 s
  | Hartree multipole summation                :        0.595 s           0.595 s
  | Integration                                :        1.636 s           1.636 s
  | Solution of K.-S. eqns.                    :        2.210 s           2.209 s
  | Total energy evaluation                    :        0.008 s           0.008 s

  Partial memory accounting:
  | Current value for overall tracked memory usage:
  |   Minimum:       41.032 MB (on task  0)
  |   Maximum:       41.242 MB (on task  1)
  |   Average:       41.225 MB
  | Peak value for overall tracked memory usage:
  |   Minimum:       62.269 MB (on task  9 after allocating gradient_basis_wave)
  |   Maximum:       69.619 MB (on task 21 after allocating gradient_basis_wave)
  |   Average:       63.497 MB
  | Largest tracked array allocation so far:
  |   Minimum:       29.836 MB (KS_eigenvector_complex on task  0)
  |   Maximum:       30.046 MB (KS_eigenvector_complex on task  1)
  |   Average:       30.029 MB
  Note:  These values currently only include a subset of arrays which are explicitly tracked.
  The "true" memory usage will be greater.
------------------------------------------------------------

  Energy and forces in a compact form:
  | Total energy uncorrected      :         -0.146455727207974E+06 eV
  | Total energy corrected        :         -0.146455728532418E+06 eV  <-- do not rely on this value for anything but (periodic) metals
  | Electronic free energy        :         -0.146455729856862E+06 eV

  ------------------------------------ 
  Start decomposition of the XC Energy 
  ------------------------------------ 
  X and C from original XC functional choice 
  Hartree-Fock Energy :          0.000000000 Ha              0.000000000 eV
  X Energy            :       -237.270365286 Ha          -6456.455140248 eV
  C Energy            :         -5.311882615 Ha           -144.543680255 eV
  Total XC Energy     :       -242.582247901 Ha          -6600.998820502 eV
  ------------------------------------ 
  LDA X and C from self-consistent density 
  X Energy LDA        :       -222.953022223 Ha          -6066.860413156 eV
  C Energy LDA        :         -9.874817898 Ha           -268.707466685 eV
  ------------------------------------ 
  End decomposition of the XC Energy 
  ------------------------------------ 

------------------------------------------------------------

------------------------------------------------------------------------------
  Final output of selected total energy values:

  The following output summarizes some interesting total energy values
  at the end of a run (AFTER all relaxation, molecular dynamics, etc.).

  | Total energy of the DFT / Hartree-Fock s.c.f. calculation      :        -146455.727207974 eV
  | Final zero-broadening corrected energy (caution - metals only) :        -146455.728532418 eV
  | For reference only, the value of 1 Hartree used in FHI-aims is :             27.211384500 eV
  | For reference only, the overall average (free atom contribution
  | + realspace contribution) of the electrostatic potential after
  | s.c.f. convergence is                                          :            -20.170277645 eV

  Before relying on these values, please be sure to understand exactly which
  total energy value is referred to by a given number. Different objects may
  all carry the same name 'total energy'. Definitions:

  Total energy of the DFT / Hartree-Fock s.c.f. calculation:
  | Note that this energy does not include ANY quantities calculated after the
  | s.c.f. cycle, in particular not ANY RPA, MP2, etc. many-body perturbation terms.

  Final zero-broadening corrected energy:
  | For metallic systems only, a broadening of the occupation numbers at the Fermi
  | level can be extrapolated back to zero broadening by an electron-gas inspired
  | formula. For all systems that are not real metals, this value can be
  | meaningless and should be avoided.

------------------------------------------------------------------------------
  Methods described in the following list of references were used in this FHI-aims run.
  If you publish the results, please make sure to cite these reference if they apply.
  FHI-aims is an academic code, and for our developers (often, Ph.D. students
  and postdocs), scientific credit in the community is essential.
  Thank you for helping us!

  For any use of FHI-aims, please cite:

    Volker Blum, Ralf Gehrke, Felix Hanke, Paula Havu, Ville Havu,
    Xinguo Ren, Karsten Reuter, and Matthias Scheffler
    'Ab initio molecular simulations with numeric atom-centered orbitals'
    Computer Physics Communications 180, 2175-2196 (2009)
    http://dx.doi.org/10.1016/j.cpc.2009.06.022


  The provided symmetry information was generated with SPGlib:

    Atsushi Togo, Yusuke Seto, Dimitar Pashov
    SPGlib 1.7.3 obtained from http://spglib.sourceforge.net
    Copyright (C) 2008 Atsushi Togo


  The ELSI infrastructure was used in your run to solve the Kohn-Sham electronic structure.
  Please check out http://elsi-interchange.org to learn more.
  If scalability is important for your project, please acknowledge ELSI by citing:

    V. W-z. Yu, F. Corsetti, A. Garcia, W. P. Huhn, M. Jacquelin, W. Jia,
    B. Lange, L. Lin, J. Lu, W. Mi, A. Seifitokaldani, A. Vazquez-Mayagoitia,
    C. Yang, H. Yang, and V. Blum
    'ELSI: A unified software interface for Kohn-Sham electronic structure solvers'
    Computer Physics Communications 222, 267-285 (2018).
    http://dx.doi.org/10.1016/j.cpc.2017.09.007


  For the real-space grid partitioning and parallelization used in this calculation, please cite:

    Ville Havu, Volker Blum, Paula Havu, and Matthias Scheffler,
    'Efficient O(N) integration for all-electron electronic structure calculation'
    'using numerically tabulated basis functions'
    Journal of Computational Physics 228, 8367-8379 (2009).
    http://dx.doi.org/10.1016/j.jcp.2009.08.008

  Of course, there are many other important community references, e.g., those cited in the
  above references. Our list is limited to references that describe implementations in the
  FHI-aims code. The reason is purely practical (length of this list) - please credit others as well.

------------------------------------------------------------
          Leaving FHI-aims.
          Date     :  20200320, Time     :  120112.322

          Computational steps:
          | Number of self-consistency cycles          :           26
          | Number of SCF (re)initializations          :            1

          Detailed time accounting                     :  max(cpu_time)    wall_clock(cpu1)
          | Total time                                 :      224.981 s         225.242 s
          | Preparation time                           :        0.426 s           0.472 s
          | Boundary condition initalization           :        0.176 s           0.177 s
          | Grid partitioning                          :        0.146 s           0.146 s
          | Preloading free-atom quantities on grid    :        0.022 s           0.022 s
          | Free-atom superposition energy             :        0.057 s           0.057 s
          | Total time for integrations                :       45.594 s          45.589 s
          | Total time for solution of K.-S. equations :       60.671 s          60.869 s
          | Total time for density update              :       94.885 s          94.879 s
          | Total time for mixing & preconditioning    :        6.041 s           6.042 s
          | Total time for Hartree multipole update    :        0.063 s           0.065 s
          | Total time for Hartree multipole sum       :       15.410 s          15.408 s
          | Total time for total energy evaluation     :        0.221 s           0.229 s
          | Total time for scaled ZORA corrections     :        0.000 s           0.000 s

          Partial memory accounting:
          | Residual value for overall tracked memory usage across tasks:     0.000000 MB (should be 0.000000 MB)
          | Peak values for overall tracked memory usage:
          |   Minimum:       62.269 MB (on task  9 after allocating gradient_basis_wave)
          |   Maximum:       69.619 MB (on task 21 after allocating gradient_basis_wave)
          |   Average:       63.497 MB
          | Largest tracked array allocation:
          |   Minimum:       29.836 MB (KS_eigenvector_complex on task  0)
          |   Maximum:       30.046 MB (KS_eigenvector_complex on task  1)
          |   Average:       30.029 MB
          Note:  These values currently only include a subset of arrays which are explicitly tracked.
          The "true" memory usage will be greater.

          Have a nice day.
------------------------------------------------------------
