------------------------------------------------------------
          Invoking FHI-aims ...

          When using FHI-aims, please cite the following reference:

          Volker Blum, Ralf Gehrke, Felix Hanke, Paula Havu,
          Ville Havu, Xinguo Ren, Karsten Reuter, and Matthias Scheffler,
          'Ab Initio Molecular Simulations with Numeric Atom-Centered Orbitals',
          Computer Physics Communications 180, 2175-2196 (2009)

          For any questions about FHI-aims, please visit the aimsclub website
          with its forums and wiki. Contributions to both the forums and the
          wiki are warmly encouraged - they are for you, and everyone is welcome there.

------------------------------------------------------------



  Date     :  20200320, Time     :  120134.815
  Time zero on CPU 1             :   0.109362000000000E+00  s.
  Internal wall clock time zero  :           353937694.815  s.

  FHI-aims created a unique identifier for this run for later identification
  aims_uuid : B68B115C-3A48-4F14-A986-573D1A4B3115

  Build configuration of the current instance of FHI-aims
  -------------------------------------------------------
  FHI-aims version      : 200112
  Commit number         : 23daeca3f
  CMake host system     : Linux-3.10.0-693.21.1.el7.x86_64
  CMake version         : 3.13.3
  Fortran compiler      : /sw/installed/impi/2018.4.274-iccifort-2019.1.144-GCC-8.2.0-2.31.1/bin64/mpiifort (Intel) version 19.0.0.20181018
  Fortran compiler flags: -O3 -ip -fp-model precise
  C compiler            : /sw/installed/impi/2018.4.274-iccifort-2019.1.144-GCC-8.2.0-2.31.1/bin64/mpiicc (Intel) version 19.0.0.20181018
  C compiler flags      : -O3 -ip -fp-model precise
  Architecture          :
  Using MPI
  Using Scalapack
  Using C files
  Using LibXC
  Using SPGlib
  Using i-PI
  Using RLSY
  Linking against: /sw/installed/imkl/2019.1.144-iimpi-2019a/mkl/lib/intel64/libmkl_intel_lp64.so
                   /sw/installed/imkl/2019.1.144-iimpi-2019a/mkl/lib/intel64/libmkl_sequential.so
                   /sw/installed/imkl/2019.1.144-iimpi-2019a/mkl/lib/intel64/libmkl_core.so
                   /sw/installed/imkl/2019.1.144-iimpi-2019a/mkl/lib/intel64/libmkl_blacs_intelmpi_lp64.so
                   /sw/installed/imkl/2019.1.144-iimpi-2019a/mkl/lib/intel64/libmkl_scalapack_lp64.so

  Using       24 parallel tasks.
  Task        0 on host taurusi6537.taurus.hrsk.tu-dresden.de reporting.
  Task        1 on host taurusi6537.taurus.hrsk.tu-dresden.de reporting.
  Task        2 on host taurusi6537.taurus.hrsk.tu-dresden.de reporting.
  Task        3 on host taurusi6537.taurus.hrsk.tu-dresden.de reporting.
  Task        4 on host taurusi6537.taurus.hrsk.tu-dresden.de reporting.
  Task        5 on host taurusi6537.taurus.hrsk.tu-dresden.de reporting.
  Task        6 on host taurusi6537.taurus.hrsk.tu-dresden.de reporting.
  Task        7 on host taurusi6537.taurus.hrsk.tu-dresden.de reporting.
  Task        8 on host taurusi6537.taurus.hrsk.tu-dresden.de reporting.
  Task        9 on host taurusi6537.taurus.hrsk.tu-dresden.de reporting.
  Task       10 on host taurusi6537.taurus.hrsk.tu-dresden.de reporting.
  Task       11 on host taurusi6537.taurus.hrsk.tu-dresden.de reporting.
  Task       12 on host taurusi6537.taurus.hrsk.tu-dresden.de reporting.
  Task       13 on host taurusi6537.taurus.hrsk.tu-dresden.de reporting.
  Task       14 on host taurusi6537.taurus.hrsk.tu-dresden.de reporting.
  Task       15 on host taurusi6537.taurus.hrsk.tu-dresden.de reporting.
  Task       16 on host taurusi6537.taurus.hrsk.tu-dresden.de reporting.
  Task       17 on host taurusi6537.taurus.hrsk.tu-dresden.de reporting.
  Task       18 on host taurusi6537.taurus.hrsk.tu-dresden.de reporting.
  Task       19 on host taurusi6537.taurus.hrsk.tu-dresden.de reporting.
  Task       20 on host taurusi6537.taurus.hrsk.tu-dresden.de reporting.
  Task       21 on host taurusi6537.taurus.hrsk.tu-dresden.de reporting.
  Task       22 on host taurusi6537.taurus.hrsk.tu-dresden.de reporting.
  Task       23 on host taurusi6537.taurus.hrsk.tu-dresden.de reporting.

  Performing system and environment tests:
  | Environment variable OMP_NUM_THREADS correctly set to 1.
  | Maximum stacksize for task 0: unlimited
  | Maximum stacksize for task 1: unlimited
  | Maximum stacksize for task 2: unlimited
  | Maximum stacksize for task 3: unlimited
  | Maximum stacksize for task 4: unlimited
  | Maximum stacksize for task 5: unlimited
  | Maximum stacksize for task 6: unlimited
  | Maximum stacksize for task 7: unlimited
  | Maximum stacksize for task 8: unlimited
  | Maximum stacksize for task 9: unlimited
  | Maximum stacksize for task 10: unlimited
  | Maximum stacksize for task 11: unlimited
  | Maximum stacksize for task 12: unlimited
  | Maximum stacksize for task 13: unlimited
  | Maximum stacksize for task 14: unlimited
  | Maximum stacksize for task 15: unlimited
  | Maximum stacksize for task 16: unlimited
  | Maximum stacksize for task 17: unlimited
  | Maximum stacksize for task 18: unlimited
  | Maximum stacksize for task 19: unlimited
  | Maximum stacksize for task 20: unlimited
  | Maximum stacksize for task 21: unlimited
  | Maximum stacksize for task 22: unlimited
  | Maximum stacksize for task 23: unlimited
  | Current stacksize for task 0: unlimited
  | Current stacksize for task 1: unlimited
  | Current stacksize for task 2: unlimited
  | Current stacksize for task 3: unlimited
  | Current stacksize for task 4: unlimited
  | Current stacksize for task 5: unlimited
  | Current stacksize for task 6: unlimited
  | Current stacksize for task 7: unlimited
  | Current stacksize for task 8: unlimited
  | Current stacksize for task 9: unlimited
  | Current stacksize for task 10: unlimited
  | Current stacksize for task 11: unlimited
  | Current stacksize for task 12: unlimited
  | Current stacksize for task 13: unlimited
  | Current stacksize for task 14: unlimited
  | Current stacksize for task 15: unlimited
  | Current stacksize for task 16: unlimited
  | Current stacksize for task 17: unlimited
  | Current stacksize for task 18: unlimited
  | Current stacksize for task 19: unlimited
  | Current stacksize for task 20: unlimited
  | Current stacksize for task 21: unlimited
  | Current stacksize for task 22: unlimited
  | Current stacksize for task 23: unlimited
  | Checking for scalapack...
  | Testing pdtran()...
  | All pdtran() tests passed.

  Obtaining array dimensions for all initial allocations:
  
  -----------------------------------------------------------------------
  Parsing control.in (first pass over file, find array dimensions only).
  The contents of control.in will be repeated verbatim below
  unless switched off by setting 'verbatim_writeout .false.' .
  in the first line of control.in .
  -----------------------------------------------------------------------
  
  #===============================================================================
  # FHI-aims file: ./control.in
  # Created using the Atomic Simulation Environment (ASE)
  # Thu Mar 19 17:13:25 2020
  #===============================================================================
  xc                                 pbe
  # include_spin_orbit
  # vdw_correction_hirshfeld
  # many_body_dispersion_nl 	 beta=0.81
  spin                               none
  k_grid 	 	 14 14 8
  relativistic                       atomic_zora scalar
  ### SCF settings
  adjust_scf 	 always 	 3
  # frozen_core_scf 	 .true.
  charge_mix_param  0.02
  occupation_type 	 gaussian 	 0.02
  # sc_accuracy_eev   1E-3 	 	 # sum of eigenvalues convergence
  # sc_accuracy_etot  1E-6 	 	 # total energy convergence
  # sc_accuracy_rho   1E-3 	 	 # electron density convergence
  # elsi_restart 	 read_and_write 	 1000
  #===============================================================================
  
  ################################################################################
  #
  #  FHI-aims code project
  # Volker Blum, Fritz Haber Institute Berlin, 2009
  #
  #  Suggested "tight" defaults for Mo atom (to be pasted into control.in file)
  #
  ################################################################################
    species        Mo
  #     global species definitions
      nucleus             42
      mass                95.94
  #
      l_hartree           6
  #
      cut_pot             4.0  2.0  1.0
      basis_dep_cutoff    1e-4
  #
      radial_base         59 7.0
      radial_multiplier   2
      angular_grids specified
        division   0.3117   50
        division   0.6750  110
        division   1.0351  194
        division   1.2073  302
        division   1.6402  434
  #      division   1.9185  590
  #      division   2.0237  770
  #      division   2.0980  974
  #      division   2.7972 1202
  #      outer_grid  974
        outer_grid  434
  ################################################################################
  #
  #  Definition of "minimal" basis
  #
  ################################################################################
  #     valence basis states
      valence      5  s   1.
      valence      4  p   6.
      valence      4  d   5.
  #     ion occupancy
      ion_occ     5  s   0.
      ion_occ     4  p   6.
      ion_occ     4  d   4.
  ################################################################################
  #
  #  Suggested additional basis functions. For production calculations,
  #  uncomment them one after another (the most important basis functions are
  #  listed first).
  #
  #  Constructed for dimers: 1.675 A, 1.9 A, 2.375 A, 3.00 A, 4.00 A
  #
  ################################################################################
  #  "First tier"  - max. impr. -711.23  meV, min. impr. -21.07 meV
       hydro 4 f 8.4
       hydro 3 d 2.8
       ionic 5 p auto
       hydro 5 g 12
       ionic 5 s auto
  #  "Second tier" - max. impr. -39.38  meV, min. impr. -2.68 meV
  #     hydro 4 f 12.4
  #     hydro 3 d 3.3
  #     hydro 6 h 17.2
  #     hydro 4 f 7.6
  #     hydro 3 p 3.0
  #     hydro 1 s 0.65
  #  "Third tier"  - max. impr. -5.50 meV, min. impr. -0.47 meV
  #     hydro 4 f 29.2
  #     hydro 5 g 11.2
  #     hydro 3 d 6.8
  #     hydro 6 h 14.8
  #     hydro 2 p 2.3
  #     hydro 4 s 3.8
  #  "Fourth tier"  - max. impr. -0.58 meV, min. impr. -0.19 meV
  #     hydro 5 f 6.8
  #     hydro 5 d 14.8
  #     hydro 6 s 7.8
  #     hydro 5 g 20.8
  #     hydro 5 d 10.4
  #     hydro 5 p 9.8
  #  Further functions - -0.17 meV and below
  #     hydro 5 d 3.2
  ################################################################################
  #
  #  FHI-aims code project
  # Volker Blum, Fritz Haber Institute Berlin, 2009
  #
  #  Suggested "tight" defaults for S atom (to be pasted into control.in file)
  #
  #  Revised Jan 04, 2011, following tests (SiC) done by Lydia Nemec:
  #     d and g functions of tier 2 now enabled by default.
  #
  ################################################################################
    species        S
  #     global species definitions
      nucleus             16
      mass                32.065
  #
      l_hartree           6
  #
      cut_pot             4.0          2.0  1.0
      basis_dep_cutoff    1e-4
  #
      radial_base         44 7.0
      radial_multiplier   2
      angular_grids       specified
        division   0.4665  110
        division   0.5810  194
        division   0.7139  302
        division   0.8274  434
  #      division   0.9105  590
  #      division   1.0975  770
  #      division   1.2028  974
  #      outer_grid  974
        outer_grid  434
  ################################################################################
  #
  #  Definition of "minimal" basis
  #
  ################################################################################
  #     valence basis states
      valence      3  s   2.
      valence      3  p   4.
  #     ion occupancy
      ion_occ      3  s   1.
      ion_occ      3  p   3.
  ################################################################################
  #
  #  Suggested additional basis functions. For production calculations,
  #  uncomment them one after another (the most important basis functions are
  #  listed first).
  #
  #  Constructed for dimers: 1.6 A, 1.9 A, 2.5 A, 3.25 A, 4.0 A
  #
  ################################################################################
  #  "First tier" - improvements: -652.81 meV to -45.53 meV
       ionic 3 d auto
       hydro 2 p 1.8
       hydro 4 f 7
       ionic 3 s auto
  #  "Second tier" - improvements: -30.20 meV to -1.74 meV
  #     hydro 4 d 6.2
  #     hydro 5 g 10.8
  #     hydro 4 p 4.9
  #     hydro 5 f 10
  #     hydro 1 s 0.8
  #  "Third tier" - improvements: -1.04 meV to -0.20 meV
  #     hydro 3 d 3.9
  #     hydro 3 d 2.7
  #     hydro 5 g 12
  #     hydro 4 p 10.4
  #     hydro 5 f 12.4
  #     hydro 2 s 1.9
  #  "Fourth tier" - improvements: -0.35 meV to -0.06 meV
  #     hydro 4 d 10.4
  #     hydro 4 p 7.2
  #     hydro 4 d 10
  #     hydro 5 g 19.2
  #     hydro 4 s 12
  #
  ################################################################################
  #
  # For methods that use the localized form of the "resolution of identity" for
  # the two-electron Coulomb operator (RI_method LVL), particularly Hartree-Fock and
  # hybrid density functional calculations, the highest accuracy can be obtained by
  # uncommenting the line beginning with "for_aux"  below, thus adding an extra g radial
  # function to the construction of the product basis set for the expansion.
  # See Ref. New J. Phys. 17, 093020 (2015) for more information, particularly Figs. 1 and 6.
  #
  ################################################################################
  #
  # for_aux hydro 5 g 6.0
  
  -----------------------------------------------------------------------
  Completed first pass over input file control.in .
  -----------------------------------------------------------------------
  
  
  -----------------------------------------------------------------------
  Parsing geometry.in (first pass over file, find array dimensions only).
  The contents of geometry.in will be repeated verbatim below
  unless switched off by setting 'verbatim_writeout .false.' .
  in the first line of geometry.in .
  -----------------------------------------------------------------------
  
  #=======================================================
  # FHI-aims file: ./geometry.in
  # Created using the Atomic Simulation Environment (ASE)
  # Thu Mar 19 17:13:25 2020
  #=======================================================
  lattice_vector 3.1600000000000001 0.0000000000000000 0.0000000000000000
  lattice_vector -1.5800000000000001 2.7366402800000000 0.0000000000000000
  lattice_vector 0.0000000000000000 0.0000000000000000 12.3000000000000007
  atom_frac 0.3333333327243141 0.6666666654486282 0.2500000000000000 Mo
  atom_frac 0.6666666672756860 0.3333333345513719 0.7500000000000000 Mo
  atom_frac 0.3333333327243141 0.6666666654486282 0.8784999999999999 S
  atom_frac 0.6666666672756860 0.3333333345513719 0.3785000000000000 S
  atom_frac 0.6666666672756860 0.3333333345513719 0.1215000000000000 S
  atom_frac 0.3333333327243141 0.6666666654486282 0.6214999999999999 S
  
  -----------------------------------------------------------------------
  Completed first pass over input file geometry.in .
  -----------------------------------------------------------------------
  

  Basic array size parameters:
  | Number of species                 :        2
  | Number of atoms                   :        6
  | Number of lattice vectors         :        3
  | Max. basis fn. angular momentum   :        4
  | Max. atomic/ionic basis occupied n:        5
  | Max. number of basis fn. types    :        3
  | Max. radial fns per species/type  :       10
  | Max. logarithmic grid size        :     1436
  | Max. radial integration grid size :      119
  | Max. angular integration grid size:      434
  | Max. angular grid division number :        8
  | Radial grid for Hartree potential :     1436
  | Number of spin channels           :        1

------------------------------------------------------------
          Reading file control.in.
------------------------------------------------------------
  XC: Using PBE gradient-corrected functionals.
  Spin treatment: No spin polarisation.
  Found k-point grid:        14        14         8
  Scalar relativistic treatment of kinetic energy: on-site free-atom approximation to ZORA.
  S.C.F. convergence parameters will be adjusted in iteration number     3 of each new s.c.f. cycle.
  Charge density mixing - mixing parameter:     0.0200
  Occupation type: Gaussian broadening, width =   0.200000E-01 eV.
 
  Reading configuration options for species Mo                  .
  | Found nuclear charge :  42.0000
  | Found atomic mass :    95.9400000000000      amu
  | Found l_max for Hartree potential  :   6
  | Found cutoff potl. onset [A], width [A], scale factor :    4.00000    2.00000    1.00000
  | Threshold for basis-dependent cutoff potential is   0.100000E-03
  | Found data for basic radial integration grid :    59 points, outermost radius =    7.000 A
  | Found multiplier for basic radial grid :   2
  | Found angular grid specification: user-specified.
  | Specified grid contains     6 separate shells.
  | Check grid settings after all constraints further below.
  | Found free-atom valence shell :  5 s   1.000
  | Found free-atom valence shell :  4 p   6.000
  | Found free-atom valence shell :  4 d   5.000
  | Found free-ion valence shell :  5 s   0.000
  | Found free-ion valence shell :  4 p   6.000
  | Found free-ion valence shell :  4 d   4.000
  | Found hydrogenic basis function :  4 f   8.400
  | Found hydrogenic basis function :  3 d   2.800
  | Found ionic basis function :  5 p , default cutoff radius.
  | Found hydrogenic basis function :  5 g  12.000
  | Found ionic basis function :  5 s , default cutoff radius.
  Species Mo                  : Missing cutoff potential type.
  Defaulting to exp(1/x)/(1-x)^2 type cutoff potential.
  Species Mo: No 'logarithmic' tag. Using default grid for free atom:
  | Default logarithmic grid data [bohr] : 0.1000E-03 0.1000E+03 0.1012E+01
  | Will include ionic basis functions of  2.0-fold positive Mo                   ion.
  Species Mo: On-site basis accuracy parameter (for Gram-Schmidt orthonormalisation) not specified.
  Using default value basis_acc =  0.1000000E-03.
  Species Mo                  : Using default innermost maximum threshold i_radial=  2 for radial functions.
  Species Mo                  : Default cutoff onset for free atom density etc. : 0.40000000E+01 AA.
  Species Mo                  : Basic radial grid will be enhanced according to radial_multiplier =   2, to contain   119 grid points.
 
  Reading configuration options for species S                   .
  | Found nuclear charge :  16.0000
  | Found atomic mass :    32.0650000000000      amu
  | Found l_max for Hartree potential  :   6
  | Found cutoff potl. onset [A], width [A], scale factor :    4.00000    2.00000    1.00000
  | Threshold for basis-dependent cutoff potential is   0.100000E-03
  | Found data for basic radial integration grid :    44 points, outermost radius =    7.000 A
  | Found multiplier for basic radial grid :   2
  | Found angular grid specification: user-specified.
  | Specified grid contains     5 separate shells.
  | Check grid settings after all constraints further below.
  | Found free-atom valence shell :  3 s   2.000
  | Found free-atom valence shell :  3 p   4.000
  | Found free-ion valence shell :  3 s   1.000
  | Found free-ion valence shell :  3 p   3.000
  | Found ionic basis function :  3 d , default cutoff radius.
  | Found hydrogenic basis function :  2 p   1.800
  | Found hydrogenic basis function :  4 f   7.000
  | Found ionic basis function :  3 s , default cutoff radius.
  Species S                   : Missing cutoff potential type.
  Defaulting to exp(1/x)/(1-x)^2 type cutoff potential.
  Species S : No 'logarithmic' tag. Using default grid for free atom:
  | Default logarithmic grid data [bohr] : 0.1000E-03 0.1000E+03 0.1012E+01
  | Will include ionic basis functions of  2.0-fold positive S                    ion.
  Species S : On-site basis accuracy parameter (for Gram-Schmidt orthonormalisation) not specified.
  Using default value basis_acc =  0.1000000E-03.
  Species S                   : Using default innermost maximum threshold i_radial=  2 for radial functions.
  Species S                   : Default cutoff onset for free atom density etc. : 0.40000000E+01 AA.
  Species S                   : Basic radial grid will be enhanced according to radial_multiplier =   2, to contain    89 grid points.
 
  Finished reading input file 'control.in'. Consistency checks are next.
 
  MPI_IN_PLACE appears to work with this MPI implementation.
  | Keeping use_mpi_in_place .true. (see manual).
  Target number of points in a grid batch is not set. Defaulting to  100
  Method for grid partitioning is not set. Defaulting to parallel hash+maxmin partitioning.
  Batch size limit is not set. Defaulting to    200
  By default, will store active basis functions for each batch.
  If in need of memory, prune_basis_once .false. can be used to disable this option.
  communication_type for Hartree potential was not specified.
  Defaulting to calc_hartree .
  Defaulting to Pulay charge density mixer.
  Pulay mixer: Number of relevant iterations not set.
  Defaulting to    8 iterations.
  Pulay mixer: Number of initial linear mixing iterations not set.
  Defaulting to    0 iterations.
  Work space size for distributed Hartree potential not set.
  Defaulting to   0.200000E+03 MB.
  Algorithm-dependent basis array size parameters:
  | n_max_pulay                         :        8
  Maximum number of self-consistency iterations not provided.
  Presetting  1000 iterations.
  Presetting      1001 iterations before the initial mixing cycle
  is restarted anyway using the sc_init_iter criterion / keyword.
  Presetting a factor      1.000 between actual scf density residual
  and density convergence criterion sc_accuracy_rho below which sc_init_iter
  takes no effect.
 * No s.c.f. convergence criteria (sc_accuracy_*) were provided in control.in.
 * The run will proceed with a reasonable default guess, but please check whether.
 * the s.c.f. cycles seem to take too much or too little time.
  Calculation of forces was not defined in control.in. No forces will be calculated.
  Geometry relaxation not requested: no relaxation will be performed.
 * Notice: The s.c.f. convergence criterion sc_accuracy_rho was not provided.
 * We used to stop in this case, and ask the user to provide reasonable
 * scf convergence criteria. However, this led some users to employ criteria
 * that led to extremely long run times, e.g., for simple relaxation.
 * We now preset a default value for sc_accuracy_rho if it is not set.
 * You may still wish to check if this setting is too tight or too loose for your needs.
 * Based on n_atoms, FHI-aims chose sc_accuracy_rho =  0.100000E-05 .
  No accuracy limit for integral partition fn. given. Defaulting to  0.1000E-14.
  No threshold value for u(r) in integrations given. Defaulting to  0.1000E-05.
  No accuracy for occupation numbers given. Defaulting to  0.1000E-12.
  No threshold value for occupation numbers given. Defaulting to  0.0000E+00.
  No accuracy for fermi level given. Defaulting to  0.1000E-19.
  Maximum # of iterations to find E_F not set. Defaulting to  200.
  Preferred method for the eigenvalue solver ('KS_method') not specified in 'control.in'.
  Defaulting to serial version, LAPACK (via ELSI), since more k-points than CPUs available.
  Will not use alltoall communication since running on < 1024 CPUs.
  Threshold for basis singularities not set.
  Default threshold for basis singularities:  0.1000E-04
  partition_type (choice of integration weights) for integrals was not specified.
  | Using a version of the partition function of Stratmann and coworkers ('stratmann_sparse').
  | At each grid point, the set of atoms used to build the partition table is smoothly restricted to
  | only those atoms whose free-atom density would be non-zero at that grid point.
  Partitioning for Hartree potential was not defined. Using partition_type for integrals.
  | Adjusted default value of keyword multip_moments_threshold to:       0.10000000E-11
  | This value may affect high angular momentum components of the Hartree potential in periodic systems.
  Angular momentum expansion for Kerker preconditioner not set explicitly.
  | Using default value of   0
  No explicit requirement for turning off preconditioner.
  | By default, it will be turned off when the charge convergence reaches
  | sc_accuracy_rho  =   0.100000E-05
  No special mixing parameter while Kerker preconditioner is on.
  Using default: charge_mix_param =     0.0200.
  No q(lm)/r^(l+1) cutoff set for long-range Hartree potential.
  | Using default value of  0.100000E-09 .
  | Verify using the multipole_threshold keyword.
  Defaulting to new monopole extrapolation.
  Density update method: automatic selection selected.
  Using density matrix based charge density update.
  Using density matrix based charge density update.
  Using packed matrix style: index .
  Defaulting to use time-reversal symmetry for k-point grid.
  Charge integration errors on the 3D integration grid will be compensated
  by explicit normalization and distribution of residual charges.
  Use the "compensate_multipole_errors" flag to change this behaviour.
------------------------------------------------------------


------------------------------------------------------------
          Reading geometry description geometry.in.
------------------------------------------------------------
  Input structure read successfully.
  The structure contains        6 atoms,  and a total of        148.000 electrons.

  Input geometry:
  | Unit cell:
  |        3.16000000        0.00000000        0.00000000
  |       -1.58000000        2.73664028        0.00000000
  |        0.00000000        0.00000000       12.30000000
  | Atomic structure:
  |       Atom                x [A]            y [A]            z [A]
  |    1: Species Mo            0.00000000        1.82442685        3.07500000
  |    2: Species Mo            1.58000000        0.91221343        9.22500000
  |    3: Species S             0.00000000        1.82442685       10.80555000
  |    4: Species S             1.58000000        0.91221343        4.65555000
  |    5: Species S             1.58000000        0.91221343        1.49445000
  |    6: Species S             0.00000000        1.82442685        7.64445000

  Lattice parameters for 3D lattice (in Angstroms) :     3.160000    3.160000   12.300000
  Angle(s) between unit vectors (in degrees)       :    90.000000   90.000000  120.000000

  | The smallest distance between any two atoms is         2.41384996 AA.
  | The first atom of this pair is atom number                      3 .
  | The second atom of this pair is atom number                     2 .
  | Wigner-Seitz cell of the first atom image          -1     1     0 .
  | (The Wigner-Seitz cell of the second atom is 0 0 0  by definition.)

  Symmetry information by spglib:
  | Precision set to  0.1E-04
  | Number of Operations  : 24
  | Space group           : 194
  | International         : P6_3/mmc
  | Schoenflies           : D6h^4

  Quantities derived from the lattice vectors:
  | Reciprocal lattice vector 1:  1.988350  1.147974  0.000000
  | Reciprocal lattice vector 2:  0.000000  2.295949  0.000000
  | Reciprocal lattice vector 3:  0.000000  0.000000  0.510828
  | Unit cell volume                               :   0.106368E+03  A^3

  Range separation radius for Ewald summation (hartree_convergence_parameter):      3.71769546 bohr.

  Fractional coordinates:
                         L1                L2                L3
       atom_frac         0.33333333        0.66666667        0.25000000  Mo
       atom_frac         0.66666667        0.33333333        0.75000000  Mo
       atom_frac         0.33333333        0.66666667        0.87850000  S
       atom_frac         0.66666667        0.33333333        0.37850000  S
       atom_frac         0.66666667        0.33333333        0.12150000  S
       atom_frac         0.33333333        0.66666667        0.62150000  S

  Number of empty states per atom not set in control.in - providing a guess from actual geometry.
  | Total number of empty states used during s.c.f. cycle:       23
  If you use a very high smearing, use empty_states (per atom!) in control.in to increase this value.

  Structure-dependent array size parameters: 
  | Maximum number of distinct radial functions  :       24
  | Maximum number of basis functions            :      198
  | Number of Kohn-Sham states (occupied + empty):       97
------------------------------------------------------------

------------------------------------------------------------
          Preparing all fixed parts of the calculation.
------------------------------------------------------------
  Determining machine precision:
    2.225073858507201E-308
  Setting up grids for atomic and cluster calculations.

  Creating wave function, potential, and density for free atoms.

  Species: Mo

  List of occupied orbitals and eigenvalues:
    n    l              occ      energy [Ha]    energy [eV]
    1    0           2.0000      -745.344654    -20281.8600
    2    0           2.0000      -103.288246     -2810.6162
    3    0           2.0000       -17.516687      -476.6533
    4    0           2.0000        -2.358559       -64.1796
    5    0           1.0000        -0.145159        -3.9500
    2    1           6.0000       -92.308627     -2511.8455
    3    1           6.0000       -13.936005      -379.2180
    4    1           6.0000        -1.408138       -38.3174
    3    2          10.0000        -8.119011      -220.9295
    4    2           5.0000        -0.132984        -3.6187


  Species: S

  List of occupied orbitals and eigenvalues:
    n    l              occ      energy [Ha]    energy [eV]
    1    0           2.0000       -88.680731     -2413.1255
    2    0           2.0000        -7.781719      -211.7513
    3    0           2.0000        -0.633662       -17.2428
    2    1           6.0000        -5.751976      -156.5192
    3    1           4.0000        -0.257086        -6.9957

  Creating fixed part of basis set: Ionic, confined, hydrogenic.
 
  Mo                   ion:

  List of free ionic orbitals and eigenvalues:
    n    l      energy [Ha]    energy [eV]
    1    0      -746.048685    -20301.0176
    2    0      -103.980912     -2829.4646
    3    0       -18.206601      -495.4268
    4    0        -3.040545       -82.7374
    2    1       -93.001013     -2530.6863
    3    1       -14.625827      -397.9890
    4    1        -2.084855       -56.7318
    3    2        -8.808854      -239.7011
    4    2        -0.765435       -20.8285


  List of ionic basis orbitals and eigenvalues:
    n    l      energy [Ha]    energy [eV]    outer radius [A]
    5    1        -0.465587       -12.6693       5.456393
    5    0        -0.650331       -17.6964       5.390095

 
  Mo                   hydrogenic:
 
  List of hydrogenic basis orbitals: 
    n    l      effective z      eigenvalue [eV]  inner max. [A]     outer max. [A]     outer radius [A]   
    4    3         8.400000       -60.0010           1.009788           1.009788           4.487018
    3    2         2.800000       -11.8048           1.687401           1.687401           5.456393
    5    4        12.000000       -78.3687           1.100005           1.100005           4.432498
 
 
  S                    ion:

  List of free ionic orbitals and eigenvalues:
    n    l      energy [Ha]    energy [eV]
    1    0       -89.703778     -2440.9640
    2    0        -8.775428      -238.7916
    3    0        -1.470343       -40.0101
    2    1        -6.747660      -183.6132
    3    1        -1.048627       -28.5346


  List of ionic basis orbitals and eigenvalues:
    n    l      energy [Ha]    energy [eV]    outer radius [A]
    3    2        -0.495605       -13.4861       5.386362
    3    0        -1.470336       -40.0099       3.967934

 
  S                    hydrogenic:
 
  List of hydrogenic basis orbitals: 
    n    l      effective z      eigenvalue [eV]  inner max. [A]     outer max. [A]     outer radius [A]   
    2    1         1.800000       -11.0118           1.168531           1.168531           5.452614
    4    3         7.000000       -41.6672           1.212182           1.212182           5.066981
 

  Adding cutoff potential to free-atom effective potential.
  Creating atomic-like basis functions for current effective potential.

  Species Mo                  :

  List of atomic basis orbitals and eigenvalues:
    n    l      energy [Ha]    energy [eV]    outer radius [A]
    1    0      -745.344654    -20281.8600       0.247552
    2    0      -103.288246     -2810.6162       0.682864
    3    0       -17.516687      -476.6533       1.626637
    4    0        -2.358559       -64.1796       4.220963
    5    0        -0.145159        -3.9500       5.456393
    2    1       -92.308627     -2511.8455       0.699766
    3    1       -13.936005      -379.2180       1.793761
    4    1        -1.408138       -38.3174       4.828511
    3    2        -8.119011      -220.9295       2.181285
    4    2        -0.132984        -3.6187       5.390095


  Species S                   :

  List of atomic basis orbitals and eigenvalues:
    n    l      energy [Ha]    energy [eV]    outer radius [A]
    1    0       -88.680731     -2413.1255       0.682391
    2    0        -7.781719      -211.7513       2.289014
    3    0        -0.633662       -17.2428       5.256262
    2    1        -5.751976      -156.5192       2.555240
    3    1        -0.257086        -6.9957       5.386362

  Assembling full basis from fixed parts.
  | Species Mo :   atomic orbital   1 s accepted.
  | Species Mo :   atomic orbital   2 s accepted.
  | Species Mo :   atomic orbital   3 s accepted.
  | Species Mo :   atomic orbital   4 s accepted.
  | Species Mo :    ionic orbital   5 s accepted.
  | Species Mo :   atomic orbital   5 s accepted.
  | Species Mo :   atomic orbital   2 p accepted.
  | Species Mo :   atomic orbital   3 p accepted.
  | Species Mo :   atomic orbital   4 p accepted.
  | Species Mo :    ionic orbital   5 p accepted.
  | Species Mo :   atomic orbital   3 d accepted.
  | Species Mo :   atomic orbital   4 d accepted.
  | Species Mo :    hydro orbital   3 d accepted.
  | Species Mo :    hydro orbital   4 f accepted.
  | Species Mo :    hydro orbital   5 g accepted.
  | Species S :   atomic orbital   1 s accepted.
  | Species S :   atomic orbital   2 s accepted.
  | Species S :    ionic orbital   3 s accepted.
  | Species S :   atomic orbital   3 s accepted.
  | Species S :   atomic orbital   2 p accepted.
  | Species S :   atomic orbital   3 p accepted.
  | Species S :    hydro orbital   2 p accepted.
  | Species S :    ionic orbital   3 d accepted.
  | Species S :    hydro orbital   4 f accepted.
 
  Basis size parameters after reduction:
  | Total number of radial functions:       24
  | Total number of basis functions :      198
 
  Per-task memory consumption for arrays in subroutine allocate_ext:
  |           8.828912MB.
  Testing on-site integration grid accuracy.
  |  Species  Function  <phi|h_atom|phi> (log., in eV)  <phi|h_atom|phi> (rad., in eV)
           1        1             -20281.8599610543             -20281.8584300616
           1        2              -2810.6161812280              -2810.6161551921
           1        3               -476.6533163555               -476.6533136395
           1        4                -64.1796433667                -64.1796426456
           1        5                 -3.3691762756                 -3.3691802887
           1        6                  4.4704608512                  4.4699102345
           1        7              -2511.8455406047              -2511.8455385741
           1        8               -379.2179896350               -379.2179882338
           1        9                -38.3173891619                -38.3173886619
           1       10                  0.2493245095                  0.2492931069
           1       11               -220.9295301098               -220.9295297081
           1       12                 -3.6195697699                 -3.6195754704
           1       13                  7.1428000922                  7.1426882355
           1       14                 23.3975871087                 23.3975871819
           1       15                 50.2449608881                 50.2449608586
           2       16              -2413.1254568977              -2413.1254096663
           2       17               -211.7513411281               -211.7513404762
           2       18                -16.9725280787                -16.9725279206
           2       19                  7.6024436204                  7.6024549059
           2       20               -156.5192206929               -156.5192205451
           2       21                 -6.9959757887                 -6.9959777655
           2       22                  6.8896462808                  6.8895564741
           2       23                  6.0214250550                  6.0214220200
           2       24                 24.7008710786                 24.7008710738

  Preparing densities etc. for the partition functions (integrals / Hartree potential).

  Preparations completed.
  max(cpu_time)          :      0.503 s.
  Wall clock time (cpu1) :      0.531 s.
------------------------------------------------------------

------------------------------------------------------------
          Begin self-consistency loop: Initialization.

          Date     :  20200320, Time     :  120135.710
------------------------------------------------------------

  Initializing index lists of integration centers etc. from given atomic structure:
  Mapping all atomic coordinates to central unit cell.

  Initializing the k-points
  Using symmetry for reducing the k-points
  | k-points reduced from:     1568 to      788
  | Number of k-points                             :       788
  The eigenvectors in the calculations are COMPLEX.
  | K-points in task   0:        32
  | K-points in task   1:        33
  | K-points in task   2:        33
  | K-points in task   3:        33
  | K-points in task   4:        33
  | K-points in task   5:        33
  | K-points in task   6:        33
  | K-points in task   7:        33
  | K-points in task   8:        33
  | K-points in task   9:        33
  | K-points in task  10:        33
  | K-points in task  11:        33
  | K-points in task  12:        33
  | K-points in task  13:        33
  | K-points in task  14:        33
  | K-points in task  15:        33
  | K-points in task  16:        33
  | K-points in task  17:        33
  | K-points in task  18:        33
  | K-points in task  19:        33
  | K-points in task  20:        33
  | K-points in task  21:        32
  | K-points in task  22:        32
  | K-points in task  23:        32
  | Number of basis functions in the Hamiltonian integrals :      5302
  | Number of basis functions in a single unit cell        :       198
  | Number of centers in hartree potential         :      1352
  | Number of centers in hartree multipole         :       886
  | Number of centers in electron density summation:       618
  | Number of centers in basis integrals           :       696
  | Number of centers in integrals                 :       262
  | Number of centers in hamiltonian               :       618
  | Consuming       2142 KiB for k_phase.
  | Number of super-cells (origin) [n_cells]                     :        1125
  | Number of super-cells (after PM_index) [n_cells]             :         174
  | Number of super-cells in hamiltonian [n_cells_in_hamiltonian]:         174
  | Size of matrix packed + index [n_hamiltonian_matrix_size] :      639429
  | Estimated reciprocal-space cutoff momentum G_max:         2.63019706 bohr^-1 .
  | Reciprocal lattice points for long-range Hartree potential:     228
  Partitioning the integration grid into batches with parallel hashing+maxmin method.
  | Number of batches:     1806
  | Maximal batch size:     126
  | Minimal batch size:      51
  | Average batch size:      81.947
  | Standard deviation of batch sizes:      15.605

  Integration load balanced across    24 MPI tasks.
  Work distribution over tasks is as follows:
  Task     0 has       6173 integration points.
  Task     1 has       6148 integration points.
  Task     2 has       6150 integration points.
  Task     3 has       6222 integration points.
  Task     4 has       6164 integration points.
  Task     5 has       6216 integration points.
  Task     6 has       6218 integration points.
  Task     7 has       6163 integration points.
  Task     8 has       6145 integration points.
  Task     9 has       6169 integration points.
  Task    10 has       6176 integration points.
  Task    11 has       6151 integration points.
  Task    12 has       6179 integration points.
  Task    13 has       6160 integration points.
  Task    14 has       6155 integration points.
  Task    15 has       6182 integration points.
  Task    16 has       6126 integration points.
  Task    17 has       6146 integration points.
  Task    18 has       6145 integration points.
  Task    19 has       6128 integration points.
  Task    20 has       6158 integration points.
  Task    21 has       6173 integration points.
  Task    22 has       6178 integration points.
  Task    23 has       6171 integration points.
  Initializing partition tables, free-atom densities, potentials, etc. across the integration grid (initialize_grid_storage).
  | initialize_grid_storage: Actual outermost partition radius vs. multipole_radius_free
  | (-- VB: in principle, multipole_radius_free should be larger, hence this output)
  | Species        1: Confinement radius =              6.000000000000000 AA, multipole_radius_free =              6.016994434057369 AA.
  | Species        1: outer_partition_radius set to              6.016994434057369 AA .
  | Species        2: Confinement radius =              6.000000000000000 AA, multipole_radius_free =              6.012827091137924 AA.
  | Species        2: outer_partition_radius set to              6.012827091137924 AA .
  | The sparse table of interatomic distances needs       3735.65 kbyte instead of      3875.33 kbyte of memory.
  | Net number of integration points:   147996
  | of which are non-zero points    :   115578
  | Numerical average free-atom electrostatic potential    :    -18.25642459 eV
  Renormalizing the initial density to the exact electron count on the 3D integration grid.
  | Initial density: Formal number of electrons (from input files) :     148.0000000000
  | Integrated number of electrons on 3D grid     :     147.9998291670
  | Charge integration error                      :      -0.0001708330
  | Normalization factor for density and gradient :       1.0000011543
  Renormalizing the free-atom superposition density to the exact electron count on the 3D integration grid.
  | Formal number of electrons (from input files) :     148.0000000000
  | Integrated number of electrons on 3D grid     :     147.9998291670
  | Charge integration error                      :      -0.0001708330
  | Normalization factor for density and gradient :       1.0000011543
  Obtaining max. number of non-zero basis functions in each batch (get_n_compute_maxes).
  | Maximal number of non-zero basis functions:     1182 in task     0
  | Maximal number of non-zero basis functions:     1153 in task     1
  | Maximal number of non-zero basis functions:     1168 in task     2
  | Maximal number of non-zero basis functions:     1209 in task     3
  | Maximal number of non-zero basis functions:     1203 in task     4
  | Maximal number of non-zero basis functions:     1201 in task     5
  | Maximal number of non-zero basis functions:     1141 in task     6
  | Maximal number of non-zero basis functions:     1153 in task     7
  | Maximal number of non-zero basis functions:     1183 in task     8
  | Maximal number of non-zero basis functions:     1124 in task     9
  | Maximal number of non-zero basis functions:     1169 in task    10
  | Maximal number of non-zero basis functions:     1172 in task    11
  | Maximal number of non-zero basis functions:     1185 in task    12
  | Maximal number of non-zero basis functions:     1175 in task    13
  | Maximal number of non-zero basis functions:     1159 in task    14
  | Maximal number of non-zero basis functions:     1209 in task    15
  | Maximal number of non-zero basis functions:     1182 in task    16
  | Maximal number of non-zero basis functions:     1194 in task    17
  | Maximal number of non-zero basis functions:     1179 in task    18
  | Maximal number of non-zero basis functions:     1164 in task    19
  | Maximal number of non-zero basis functions:     1182 in task    20
  | Maximal number of non-zero basis functions:     1168 in task    21
  | Maximal number of non-zero basis functions:     1203 in task    22
  | Maximal number of non-zero basis functions:     1196 in task    23
  Allocating        9.378 MB for KS_eigenvector_complex
  Integrating Hamiltonian matrix: batch-based integration.
  Time summed over all CPUs for integration: real work       33.945 s, elapsed       34.886 s
  Integrating overlap matrix.
  Time summed over all CPUs for integration: real work       25.703 s, elapsed       26.387 s
  Decreasing sparse matrix size:
  | Tolerance:  0.1000E-12
  Hamiltonian matrix
  | Array has   505604 nonzero elements out of   639429 elements
  | Sparsity factor is 0.209
  Overlap matrix
  | Array has   472300 nonzero elements out of   639429 elements
  | Sparsity factor is 0.261
  New size of hamiltonian matrix:      507833

  Updating Kohn-Sham eigenvalues and eigenvectors using ELSI and the (modified) LAPACK eigensolver.
  Singularity check in k-point 24, task 0 (analysis for other k-points/tasks may follow below):
  Overlap matrix is not singular
  | Lowest and highest eigenvalues :  0.8461E-03,  0.7694E+01
  Finished singularity check of overlap matrix
  | Time :     0.022 s
  Starting LAPACK eigensolver
  Finished Cholesky decomposition
  | Time :     0.017 s
  Finished transformation to standard eigenproblem
  | Time :     0.002 s
  Finished solving standard eigenproblem
  | Time :     0.008 s
  Finished back-transformation of eigenvectors
  | Time :     0.001 s

  Obtaining occupation numbers and chemical potential using ELSI.
  | Chemical potential (Fermi level):    -4.55857404 eV
  Writing Kohn-Sham eigenvalues.
  K-point:       1 at    0.000000    0.000000    0.000000 (in units of recip. lattice)

  State    Occupation    Eigenvalue [Ha]    Eigenvalue [eV]
      1       2.00000        -745.362499       -20282.34556
      2       2.00000        -745.362499       -20282.34556
      3       2.00000        -103.306618        -2811.11610
      4       2.00000        -103.306618        -2811.11610
      5       2.00000         -92.326986        -2512.34511
      6       2.00000         -92.326986        -2512.34511
      7       2.00000         -92.326986        -2512.34511
      8       2.00000         -92.326986        -2512.34511
      9       2.00000         -92.326971        -2512.34472
     10       2.00000         -92.326971        -2512.34472
     11       2.00000         -88.712602        -2413.99272
     12       2.00000         -88.712602        -2413.99272
     13       2.00000         -88.712602        -2413.99272
     14       2.00000         -88.712602        -2413.99272
     15       2.00000         -17.536734         -477.19881
     16       2.00000         -17.536734         -477.19881
     17       2.00000         -13.956162         -379.76649
     18       2.00000         -13.956162         -379.76649
     19       2.00000         -13.956162         -379.76649
     20       2.00000         -13.956162         -379.76649
     21       2.00000         -13.956024         -379.76273
     22       2.00000         -13.956024         -379.76273
     23       2.00000          -8.139126         -221.47689
     24       2.00000          -8.139126         -221.47689
     25       2.00000          -8.139126         -221.47689
     26       2.00000          -8.139126         -221.47689
     27       2.00000          -8.139052         -221.47488
     28       2.00000          -8.139052         -221.47488
     29       2.00000          -8.139052         -221.47488
     30       2.00000          -8.139052         -221.47488
     31       2.00000          -8.138980         -221.47292
     32       2.00000          -8.138980         -221.47292
     33       2.00000          -7.816512         -212.69810
     34       2.00000          -7.816512         -212.69810
     35       2.00000          -7.816511         -212.69810
     36       2.00000          -7.816511         -212.69810
     37       2.00000          -5.786754         -157.46558
     38       2.00000          -5.786753         -157.46556
     39       2.00000          -5.786752         -157.46555
     40       2.00000          -5.786752         -157.46553
     41       2.00000          -5.786266         -157.45231
     42       2.00000          -5.786266         -157.45231
     43       2.00000          -5.786266         -157.45231
     44       2.00000          -5.786266         -157.45231
     45       2.00000          -5.786265         -157.45229
     46       2.00000          -5.786265         -157.45229
     47       2.00000          -5.786265         -157.45229
     48       2.00000          -5.786265         -157.45229
     49       2.00000          -2.394934          -65.16948
     50       2.00000          -2.394934          -65.16948
     51       2.00000          -1.455242          -39.59914
     52       2.00000          -1.455238          -39.59903
     53       2.00000          -1.444299          -39.30139
     54       2.00000          -1.444299          -39.30139
     55       2.00000          -1.444299          -39.30137
     56       2.00000          -1.444299          -39.30137
     57       2.00000          -0.785168          -21.36552
     58       2.00000          -0.775451          -21.10111
     59       2.00000          -0.740301          -20.14461
     60       2.00000          -0.724592          -19.71715
     61       2.00000          -0.475481          -12.93850
     62       2.00000          -0.432366          -11.76529
     63       2.00000          -0.362621           -9.86743
     64       2.00000          -0.325173           -8.84841
     65       2.00000          -0.325172           -8.84839
     66       2.00000          -0.324296           -8.82455
     67       2.00000          -0.324296           -8.82453
     68       2.00000          -0.289274           -7.87154
     69       2.00000          -0.289273           -7.87152
     70       2.00000          -0.286780           -7.80367
     71       2.00000          -0.286779           -7.80365
     72       2.00000          -0.278090           -7.56721
     73       2.00000          -0.236489           -6.43520
     74       2.00000          -0.194473           -5.29187
     75       0.00000          -0.125974           -3.42792
     76       0.00000          -0.125973           -3.42790
     77       0.00000          -0.125008           -3.40164
     78       0.00000          -0.125007           -3.40161
     79       0.00000          -0.124903           -3.39879
     80       0.00000          -0.124902           -3.39876
     81       0.00000          -0.119595           -3.25435
     82       0.00000          -0.119595           -3.25434
     83       0.00000          -0.012311           -0.33500
     84       0.00000          -0.010015           -0.27253
     85       0.00000           0.074505            2.02740
     86       0.00000           0.093537            2.54528
     87       0.00000           0.116176            3.16130
     88       0.00000           0.148417            4.03864
     89       0.00000           0.148418            4.03866
     90       0.00000           0.163254            4.44236
     91       0.00000           0.163254            4.44238
     92       0.00000           0.171004            4.65325
     93       0.00000           0.215454            5.86280
     94       0.00000           0.215455            5.86284
     95       0.00000           0.216918            5.90264
     96       0.00000           0.244849            6.66267
     97       0.00000           0.244850            6.66270

  What follows are estimated values for band gap, HOMO, LUMO, etc.
  | They are estimated on a discrete k-point grid and not necessarily exact.
  | For converged numbers, create a DOS and/or band structure plot on a denser k-grid.

  Highest occupied state (VBM) at     -5.29187289 eV (relative to internal zero)
  | Occupation number:      2.00000000
  | K-point:       1 at    0.000000    0.000000    0.000000 (in units of recip. lattice)

  Lowest unoccupied state (CBM) at    -4.47706068 eV (relative to internal zero)
  | Occupation number:      0.00000001
  | K-point:     383 at    0.285714    0.857143    0.000000 (in units of recip. lattice)

  ESTIMATED overall HOMO-LUMO gap:      0.81481221 eV between HOMO at k-point 1 and LUMO at k-point 383
  | This appears to be an indirect band gap.
  | Smallest direct gap :      1.86395586 eV for k_point 1 at    0.285714    0.857143    0.000000 (in units of recip. lattice)
  The gap value is above 0.2 eV. Unless you are using a very sparse k-point grid,
  this system is most likely an insulator or a semiconductor.
  Calculating total energy contributions from superposition of free atom densities.

  Total energy components:
  | Sum of eigenvalues            :       -5856.64543807 Ha     -159367.43089541 eV
  | XC energy correction          :        -351.36781271 Ha       -9561.20465265 eV
  | XC potential correction       :         456.86159110 Ha       12431.83641860 eV
  | Free-atom electrostatic energy:       -4024.01275950 Ha     -109498.95843159 eV
  | Hartree energy correction     :           0.00000000 Ha           0.00000000 eV
  | Entropy correction            :          -0.00000000 Ha          -0.00000000 eV
  | ---------------------------
  | Total energy                  :       -9775.16441918 Ha     -265995.75756104 eV
  | Total energy, T -> 0          :       -9775.16441918 Ha     -265995.75756104 eV  <-- do not rely on this value for anything but (periodic) metals
  | Electronic free energy        :       -9775.16441918 Ha     -265995.75756104 eV

  Derived energy quantities:
  | Kinetic energy                :       10036.75539144 Ha      273114.01008903 eV
  | Electrostatic energy          :      -19460.55199791 Ha     -529548.56299743 eV
  | Energy correction for multipole
  | error in Hartree potential    :           0.00000000 Ha           0.00000000 eV
  | Sum of eigenvalues per atom                           :      -26561.23848257 eV
  | Total energy (T->0) per atom                          :      -44332.62626017 eV  <-- do not rely on this value for anything but (periodic) metals
  | Electronic free energy per atom                       :      -44332.62626017 eV
  Initialize hartree_potential_storage
  Max. number of atoms included in rho_multipole:            6

  End scf initialization - timings             :  max(cpu_time)    wall_clock(cpu1)
  | Time for scf. initialization               :        4.480 s           4.523 s
  | Boundary condition initialization          :        0.134 s           0.136 s
  | Integration                                :        2.592 s           2.595 s
  | Solution of K.-S. eqns.                    :        0.847 s           0.868 s
  | Grid partitioning                          :        0.150 s           0.153 s
  | Preloading free-atom quantities on grid    :        0.023 s           0.024 s
  | Free-atom superposition energy             :        0.058 s           0.058 s
  | Total energy evaluation                    :        0.002 s           0.003 s

  Partial memory accounting:
  | Current value for overall tracked memory usage:
  |   Minimum:       19.065 MB (on task  0)
  |   Maximum:       19.358 MB (on task  1)
  |   Average:       19.309 MB
  | Peak value for overall tracked memory usage:
  |   Minimum:       34.774 MB (on task  9 after allocating wave)
  |   Maximum:       36.534 MB (on task  3 after allocating wave)
  |   Average:       35.818 MB
  | Largest tracked array allocation so far:
  |   Minimum:        9.671 MB (KS_eigenvector_complex on task  9)
  |   Maximum:       11.152 MB (hamiltonian_shell on task  3)
  |   Average:       10.578 MB
  Note:  These values currently only include a subset of arrays which are explicitly tracked.
  The "true" memory usage will be greater.
------------------------------------------------------------

------------------------------------------------------------
          Begin self-consistency iteration #    1

  Date     :  20200320, Time     :  120140.235
------------------------------------------------------------
  Evaluating new KS density using the density matrix
  Evaluating density matrix
  Time summed over all CPUs for getting density from density matrix: real work       61.134 s, elapsed       62.915 s
  Integration grid: deviation in total charge (<rho> - N_e) =   3.143441E-11
  Pulay mixing of updated and previous charge densities.
  Renormalizing the density to the exact electron count on the 3D integration grid.
  | Formal number of electrons (from input files) :     148.0000000000
  | Integrated number of electrons on 3D grid     :     148.0001061974
  | Charge integration error                      :       0.0001061974
  | Normalization factor for density and gradient :       0.9999992825

  Evaluating partitioned Hartree potential by multipole expansion.
  | Original multipole sum: apparent total charge =   0.156372E-13
  | Sum of charges compensated after spline to logarithmic grids =   0.125451E-08
  | Analytical far-field extrapolation by fixed multipoles:
  | Hartree multipole sum: apparent total charge =   0.156126E-13
  Summing up the Hartree potential.
  Time summed over all CPUs for potential: real work       12.901 s, elapsed       13.149 s
  | RMS charge density error from multipole expansion :   0.147574E-03
  | Average real-space part of the electrostatic potential :     -0.00199654 eV

  Integrating Hamiltonian matrix: batch-based integration.
  Time summed over all CPUs for integration: real work       32.743 s, elapsed       34.069 s

  Updating Kohn-Sham eigenvalues and eigenvectors using ELSI and the (modified) LAPACK eigensolver.
  Starting LAPACK eigensolver
  Finished Cholesky decomposition
  | Time :     0.001 s
  Finished transformation to standard eigenproblem
  | Time :     0.003 s
  Finished solving standard eigenproblem
  | Time :     0.007 s
  Finished back-transformation of eigenvectors
  | Time :     0.001 s

  Obtaining occupation numbers and chemical potential using ELSI.
  | Chemical potential (Fermi level):    -4.58712576 eV
  Writing Kohn-Sham eigenvalues.
  K-point:       1 at    0.000000    0.000000    0.000000 (in units of recip. lattice)

  State    Occupation    Eigenvalue [Ha]    Eigenvalue [eV]
      1       2.00000        -745.370192       -20282.55489
      2       2.00000        -745.370192       -20282.55489
      3       2.00000        -103.314179        -2811.32185
      4       2.00000        -103.314179        -2811.32185
      5       2.00000         -92.334601        -2512.55232
      6       2.00000         -92.334601        -2512.55232
      7       2.00000         -92.334601        -2512.55232
      8       2.00000         -92.334601        -2512.55232
      9       2.00000         -92.334589        -2512.55200
     10       2.00000         -92.334589        -2512.55200
     11       2.00000         -88.709839        -2413.91753
     12       2.00000         -88.709839        -2413.91753
     13       2.00000         -88.709839        -2413.91753
     14       2.00000         -88.709839        -2413.91753
     15       2.00000         -17.543129         -477.37283
     16       2.00000         -17.543129         -477.37283
     17       2.00000         -13.962555         -379.94044
     18       2.00000         -13.962555         -379.94044
     19       2.00000         -13.962555         -379.94044
     20       2.00000         -13.962555         -379.94044
     21       2.00000         -13.962428         -379.93698
     22       2.00000         -13.962428         -379.93698
     23       2.00000          -8.145607         -221.65325
     24       2.00000          -8.145607         -221.65325
     25       2.00000          -8.145607         -221.65325
     26       2.00000          -8.145607         -221.65325
     27       2.00000          -8.145548         -221.65165
     28       2.00000          -8.145548         -221.65165
     29       2.00000          -8.145548         -221.65165
     30       2.00000          -8.145548         -221.65165
     31       2.00000          -8.145464         -221.64935
     32       2.00000          -8.145464         -221.64935
     33       2.00000          -7.814360         -212.63955
     34       2.00000          -7.814360         -212.63955
     35       2.00000          -7.814360         -212.63954
     36       2.00000          -7.814360         -212.63954
     37       2.00000          -5.784523         -157.40488
     38       2.00000          -5.784522         -157.40486
     39       2.00000          -5.784522         -157.40485
     40       2.00000          -5.784522         -157.40484
     41       2.00000          -5.784072         -157.39262
     42       2.00000          -5.784072         -157.39262
     43       2.00000          -5.784072         -157.39262
     44       2.00000          -5.784072         -157.39262
     45       2.00000          -5.784072         -157.39260
     46       2.00000          -5.784072         -157.39260
     47       2.00000          -5.784072         -157.39260
     48       2.00000          -5.784072         -157.39260
     49       2.00000          -2.399348          -65.28958
     50       2.00000          -2.399348          -65.28958
     51       2.00000          -1.459143          -39.70530
     52       2.00000          -1.459139          -39.70520
     53       2.00000          -1.448318          -39.41073
     54       2.00000          -1.448318          -39.41073
     55       2.00000          -1.448317          -39.41072
     56       2.00000          -1.448317          -39.41071
     57       2.00000          -0.784421          -21.34518
     58       2.00000          -0.774702          -21.08072
     59       2.00000          -0.739502          -20.12287
     60       2.00000          -0.723765          -19.69465
     61       2.00000          -0.475349          -12.93490
     62       2.00000          -0.432454          -11.76768
     63       2.00000          -0.361918           -9.84828
     64       2.00000          -0.325760           -8.86438
     65       2.00000          -0.325759           -8.86436
     66       2.00000          -0.324907           -8.84118
     67       2.00000          -0.324907           -8.84116
     68       2.00000          -0.289473           -7.87695
     69       2.00000          -0.289472           -7.87693
     70       2.00000          -0.287014           -7.81005
     71       2.00000          -0.287014           -7.81004
     72       2.00000          -0.277268           -7.54485
     73       2.00000          -0.237902           -6.47364
     74       2.00000          -0.195797           -5.32791
     75       0.00000          -0.126639           -3.44603
     76       0.00000          -0.126639           -3.44601
     77       0.00000          -0.126006           -3.42878
     78       0.00000          -0.126004           -3.42875
     79       0.00000          -0.125971           -3.42785
     80       0.00000          -0.125970           -3.42782
     81       0.00000          -0.120258           -3.27238
     82       0.00000          -0.120257           -3.27236
     83       0.00000          -0.012294           -0.33454
     84       0.00000          -0.009918           -0.26987
     85       0.00000           0.074995            2.04071
     86       0.00000           0.094053            2.55931
     87       0.00000           0.116077            3.15862
     88       0.00000           0.148733            4.04723
     89       0.00000           0.148734            4.04725
     90       0.00000           0.163539            4.45011
     91       0.00000           0.163539            4.45013
     92       0.00000           0.171680            4.67164
     93       0.00000           0.215870            5.87413
     94       0.00000           0.215872            5.87417
     95       0.00000           0.216303            5.88589
     96       0.00000           0.245042            6.66793
     97       0.00000           0.245043            6.66796

  What follows are estimated values for band gap, HOMO, LUMO, etc.
  | They are estimated on a discrete k-point grid and not necessarily exact.
  | For converged numbers, create a DOS and/or band structure plot on a denser k-grid.

  Highest occupied state (VBM) at     -5.32791058 eV (relative to internal zero)
  | Occupation number:      2.00000000
  | K-point:       1 at    0.000000    0.000000    0.000000 (in units of recip. lattice)

  Lowest unoccupied state (CBM) at    -4.50561196 eV (relative to internal zero)
  | Occupation number:      0.00000001
  | K-point:     383 at    0.285714    0.857143    0.000000 (in units of recip. lattice)

  ESTIMATED overall HOMO-LUMO gap:      0.82229861 eV between HOMO at k-point 1 and LUMO at k-point 383
  | This appears to be an indirect band gap.
  | Smallest direct gap :      1.88188142 eV for k_point 1 at    0.285714    0.857143    0.000000 (in units of recip. lattice)
  The gap value is above 0.2 eV. Unless you are using a very sparse k-point grid,
  this system is most likely an insulator or a semiconductor.

  Total energy components:
  | Sum of eigenvalues            :       -5856.99733238 Ha     -159377.00642698 eV
  | XC energy correction          :        -351.35868228 Ha       -9560.95620092 eV
  | XC potential correction       :         456.84954746 Ha       12431.50869452 eV
  | Free-atom electrostatic energy:       -4024.01275950 Ha     -109498.95843159 eV
  | Hartree energy correction     :           0.36467472 Ha           9.92330406 eV
  | Entropy correction            :          -0.00000000 Ha          -0.00000000 eV
  | ---------------------------
  | Total energy                  :       -9775.15455198 Ha     -265995.48906091 eV
  | Total energy, T -> 0          :       -9775.15455198 Ha     -265995.48906091 eV  <-- do not rely on this value for anything but (periodic) metals
  | Electronic free energy        :       -9775.15455198 Ha     -265995.48906091 eV

  Derived energy quantities:
  | Kinetic energy                :       10036.65316310 Ha      273111.22831426 eV
  | Electrostatic energy          :      -19460.44903280 Ha     -529545.76117425 eV
  | Energy correction for multipole
  | error in Hartree potential    :          -0.00006460 Ha          -0.00175787 eV
  | Sum of eigenvalues per atom                           :      -26562.83440450 eV
  | Total energy (T->0) per atom                          :      -44332.58151015 eV  <-- do not rely on this value for anything but (periodic) metals
  | Electronic free energy per atom                       :      -44332.58151015 eV

  Self-consistency convergence accuracy:
  | Change of charge density      :  0.3913E+00
  | Change of sum of eigenvalues  : -0.9576E+01 eV
  | Change of total energy        :  0.2685E+00 eV

  End self-consistency iteration #     1       :  max(cpu_time)    wall_clock(cpu1)
  | Time for this iteration                    :        5.682 s           5.684 s
  | Charge density update                      :        2.774 s           2.774 s
  | Density mixing & preconditioning           :        0.301 s           0.301 s
  | Hartree multipole update                   :        0.003 s           0.003 s
  | Hartree multipole summation                :        0.560 s           0.560 s
  | Integration                                :        1.436 s           1.436 s
  | Solution of K.-S. eqns.                    :        0.606 s           0.606 s
  | Total energy evaluation                    :        0.002 s           0.002 s

  Partial memory accounting:
  | Current value for overall tracked memory usage:
  |   Minimum:       19.065 MB (on task  0)
  |   Maximum:       19.358 MB (on task  1)
  |   Average:       19.309 MB
  | Peak value for overall tracked memory usage:
  |   Minimum:       35.480 MB (on task  9 after allocating gradient_basis_wave)
  |   Maximum:       37.483 MB (on task  3 after allocating gradient_basis_wave)
  |   Average:       36.676 MB
  | Largest tracked array allocation so far:
  |   Minimum:        9.671 MB (KS_eigenvector_complex on task  9)
  |   Maximum:       11.152 MB (hamiltonian_shell on task  3)
  |   Average:       10.578 MB
  Note:  These values currently only include a subset of arrays which are explicitly tracked.
  The "true" memory usage will be greater.
------------------------------------------------------------

------------------------------------------------------------
          Begin self-consistency iteration #    2

  Date     :  20200320, Time     :  120145.920
------------------------------------------------------------
  Evaluating new KS density using the density matrix
  Evaluating density matrix
  Time summed over all CPUs for getting density from density matrix: real work       61.126 s, elapsed       62.829 s
  Integration grid: deviation in total charge (<rho> - N_e) =   3.143441E-11
  Pulay mixing of updated and previous charge densities.
  Renormalizing the density to the exact electron count on the 3D integration grid.
  | Formal number of electrons (from input files) :     148.0000000000
  | Integrated number of electrons on 3D grid     :     148.0020115675
  | Charge integration error                      :       0.0020115675
  | Normalization factor for density and gradient :       0.9999864085

  Evaluating partitioned Hartree potential by multipole expansion.
  | Original multipole sum: apparent total charge =  -0.287794E-13
  | Sum of charges compensated after spline to logarithmic grids =  -0.113469E-06
  | Analytical far-field extrapolation by fixed multipoles:
  | Hartree multipole sum: apparent total charge =  -0.289269E-13
  Summing up the Hartree potential.
  Time summed over all CPUs for potential: real work       15.088 s, elapsed       15.369 s
  | RMS charge density error from multipole expansion :   0.315525E-02
  | Average real-space part of the electrostatic potential :     -0.04165468 eV

  Integrating Hamiltonian matrix: batch-based integration.
  Time summed over all CPUs for integration: real work       32.657 s, elapsed       33.527 s

  Updating Kohn-Sham eigenvalues and eigenvectors using ELSI and the (modified) LAPACK eigensolver.
  Starting LAPACK eigensolver
  Finished Cholesky decomposition
  | Time :     0.001 s
  Finished transformation to standard eigenproblem
  | Time :     0.002 s
  Finished solving standard eigenproblem
  | Time :     0.008 s
  Finished back-transformation of eigenvectors
  | Time :     0.000 s

  Obtaining occupation numbers and chemical potential using ELSI.
  | Chemical potential (Fermi level):    -5.24016150 eV
  What follows are estimated values for band gap, HOMO, LUMO, etc.
  | They are estimated on a discrete k-point grid and not necessarily exact.
  | For converged numbers, create a DOS and/or band structure plot on a denser k-grid.

  Highest occupied state (VBM) at     -6.04446294 eV (relative to internal zero)
  | Occupation number:      2.00000000
  | K-point:       1 at    0.000000    0.000000    0.000000 (in units of recip. lattice)

  Lowest unoccupied state (CBM) at    -5.15700765 eV (relative to internal zero)
  | Occupation number:      0.00000000
  | K-point:     239 at    0.214286    0.142857    0.000000 (in units of recip. lattice)

  ESTIMATED overall HOMO-LUMO gap:      0.88745529 eV between HOMO at k-point 1 and LUMO at k-point 239
  | This appears to be an indirect band gap.
  | Smallest direct gap :      1.74318603 eV for k_point 419 at    0.214286    0.142857    0.000000 (in units of recip. lattice)
  The gap value is above 0.2 eV. Unless you are using a very sparse k-point grid,
  this system is most likely an insulator or a semiconductor.

  Total energy components:
  | Sum of eigenvalues            :       -5864.01713757 Ha     -159568.02504510 eV
  | XC energy correction          :        -351.18416885 Ha       -9556.20744885 eV
  | XC potential correction       :         456.61845625 Ha       12425.22038289 eV
  | Free-atom electrostatic energy:       -4024.01275950 Ha     -109498.95843159 eV
  | Hartree energy correction     :           7.53215772 Ha         204.96043989 eV
  | Entropy correction            :          -0.00000000 Ha          -0.00000000 eV
  | ---------------------------
  | Total energy                  :       -9775.06345195 Ha     -265993.01010277 eV
  | Total energy, T -> 0          :       -9775.06345195 Ha     -265993.01010277 eV  <-- do not rely on this value for anything but (periodic) metals
  | Electronic free energy        :       -9775.06345195 Ha     -265993.01010277 eV

  Derived energy quantities:
  | Kinetic energy                :       10034.52226056 Ha      273053.24350584 eV
  | Electrostatic energy          :      -19458.40154365 Ha     -529490.04615976 eV
  | Energy correction for multipole
  | error in Hartree potential    :          -0.00141895 Ha          -0.03861153 eV
  | Sum of eigenvalues per atom                           :      -26594.67084085 eV
  | Total energy (T->0) per atom                          :      -44332.16835046 eV  <-- do not rely on this value for anything but (periodic) metals
  | Electronic free energy per atom                       :      -44332.16835046 eV

  Self-consistency convergence accuracy:
  | Change of charge density      :  0.3745E+00
  | Change of sum of eigenvalues  : -0.1910E+03 eV
  | Change of total energy        :  0.2479E+01 eV

  End self-consistency iteration #     2       :  max(cpu_time)    wall_clock(cpu1)
  | Time for this iteration                    :        5.774 s           5.774 s
  | Charge density update                      :        2.769 s           2.769 s
  | Density mixing & preconditioning           :        0.323 s           0.324 s
  | Hartree multipole update                   :        0.003 s           0.003 s
  | Hartree multipole summation                :        0.654 s           0.654 s
  | Integration                                :        1.412 s           1.413 s
  | Solution of K.-S. eqns.                    :        0.608 s           0.608 s
  | Total energy evaluation                    :        0.002 s           0.002 s

  Partial memory accounting:
  | Current value for overall tracked memory usage:
  |   Minimum:       19.065 MB (on task  0)
  |   Maximum:       19.359 MB (on task  1)
  |   Average:       19.310 MB
  | Peak value for overall tracked memory usage:
  |   Minimum:       35.480 MB (on task  9 after allocating gradient_basis_wave)
  |   Maximum:       37.483 MB (on task  3 after allocating gradient_basis_wave)
  |   Average:       36.676 MB
  | Largest tracked array allocation so far:
  |   Minimum:        9.671 MB (KS_eigenvector_complex on task  9)
  |   Maximum:       11.152 MB (hamiltonian_shell on task  3)
  |   Average:       10.578 MB
  Note:  These values currently only include a subset of arrays which are explicitly tracked.
  The "true" memory usage will be greater.
------------------------------------------------------------

------------------------------------------------------------
          Begin self-consistency iteration #    3

  Date     :  20200320, Time     :  120151.695
------------------------------------------------------------
  Evaluating new KS density using the density matrix
  Evaluating density matrix
  Time summed over all CPUs for getting density from density matrix: real work       61.163 s, elapsed       62.830 s
  Integration grid: deviation in total charge (<rho> - N_e) =   3.137757E-11
  Pulay mixing of updated and previous charge densities.
  Renormalizing the density to the exact electron count on the 3D integration grid.
  | Formal number of electrons (from input files) :     148.0000000000
  | Integrated number of electrons on 3D grid     :     147.9976474222
  | Charge integration error                      :      -0.0023525778
  | Normalization factor for density and gradient :       1.0000158960

  Evaluating partitioned Hartree potential by multipole expansion.
  | Original multipole sum: apparent total charge =   0.618141E-13
  | Sum of charges compensated after spline to logarithmic grids =  -0.139507E-07
  | Analytical far-field extrapolation by fixed multipoles:
  | Hartree multipole sum: apparent total charge =   0.615005E-13
  Summing up the Hartree potential.
  Time summed over all CPUs for potential: real work       14.462 s, elapsed       14.740 s
  | RMS charge density error from multipole expansion :   0.143471E-02
  | Average real-space part of the electrostatic potential :     -0.00867192 eV

  Integrating Hamiltonian matrix: batch-based integration.
  Time summed over all CPUs for integration: real work       32.667 s, elapsed       33.564 s

  Updating Kohn-Sham eigenvalues and eigenvectors using ELSI and the (modified) LAPACK eigensolver.
  Starting LAPACK eigensolver
  Finished Cholesky decomposition
  | Time :     0.001 s
  Finished transformation to standard eigenproblem
  | Time :     0.002 s
  Finished solving standard eigenproblem
  | Time :     0.007 s
  Finished back-transformation of eigenvectors
  | Time :     0.001 s

  Obtaining occupation numbers and chemical potential using ELSI.
  | Chemical potential (Fermi level):    -4.66786886 eV
  What follows are estimated values for band gap, HOMO, LUMO, etc.
  | They are estimated on a discrete k-point grid and not necessarily exact.
  | For converged numbers, create a DOS and/or band structure plot on a denser k-grid.

  Highest occupied state (VBM) at     -5.45302851 eV (relative to internal zero)
  | Occupation number:      2.00000000
  | K-point:       1 at    0.000000    0.000000    0.000000 (in units of recip. lattice)

  Lowest unoccupied state (CBM) at    -4.58593984 eV (relative to internal zero)
  | Occupation number:      0.00000001
  | K-point:     383 at    0.285714    0.857143    0.000000 (in units of recip. lattice)

  ESTIMATED overall HOMO-LUMO gap:      0.86708867 eV between HOMO at k-point 1 and LUMO at k-point 383
  | This appears to be an indirect band gap.
  | Smallest direct gap :      1.95764926 eV for k_point 1 at    0.285714    0.857143    0.000000 (in units of recip. lattice)
  The gap value is above 0.2 eV. Unless you are using a very sparse k-point grid,
  this system is most likely an insulator or a semiconductor.

  Checking to see if s.c.f. parameters should be adjusted.

  Total energy components:
  | Sum of eigenvalues            :       -5858.17605630 Ha     -159409.08113670 eV
[...]
  | RMS charge density error from multipole expansion :   0.667647E-02
  | Average real-space part of the electrostatic potential :     -0.04404658 eV

  Integrating Hamiltonian matrix: batch-based integration.
  Time summed over all CPUs for integration: real work       32.686 s, elapsed       33.541 s

  Updating Kohn-Sham eigenvalues and eigenvectors using ELSI and the (modified) LAPACK eigensolver.
  Starting LAPACK eigensolver
  Finished Cholesky decomposition
  | Time :     0.001 s
  Finished transformation to standard eigenproblem
  | Time :     0.003 s
  Finished solving standard eigenproblem
  | Time :     0.008 s
  Finished back-transformation of eigenvectors
  | Time :     0.000 s

  Obtaining occupation numbers and chemical potential using ELSI.
  | Chemical potential (Fermi level):    -5.15250484 eV
  What follows are estimated values for band gap, HOMO, LUMO, etc.
  | They are estimated on a discrete k-point grid and not necessarily exact.
  | For converged numbers, create a DOS and/or band structure plot on a denser k-grid.

  Highest occupied state (VBM) at     -5.96632284 eV (relative to internal zero)
  | Occupation number:      2.00000000
  | K-point:       1 at    0.000000    0.000000    0.000000 (in units of recip. lattice)

  Lowest unoccupied state (CBM) at    -5.06935623 eV (relative to internal zero)
  | Occupation number:      0.00000000
  | K-point:     239 at    0.214286    0.142857    0.000000 (in units of recip. lattice)

  ESTIMATED overall HOMO-LUMO gap:      0.89696661 eV between HOMO at k-point 1 and LUMO at k-point 239
  | This appears to be an indirect band gap.
  | Smallest direct gap :      1.78668641 eV for k_point 425 at    0.214286    0.142857    0.000000 (in units of recip. lattice)
  The gap value is above 0.2 eV. Unless you are using a very sparse k-point grid,
  this system is most likely an insulator or a semiconductor.

  Total energy components:
  | Sum of eigenvalues            :       -5862.88147080 Ha     -159537.12197980 eV
  | XC energy correction          :        -351.19827646 Ha       -9556.59133639 eV
  | XC potential correction       :         456.63282563 Ha       12425.61139351 eV
  | Free-atom electrostatic energy:       -4024.01275950 Ha     -109498.95843159 eV
  | Hartree energy correction     :           6.40221686 Ha         174.21318463 eV
  | Entropy correction            :          -0.00000000 Ha          -0.00000000 eV
  | ---------------------------
  | Total energy                  :       -9775.05746426 Ha     -265992.84716964 eV
  | Total energy, T -> 0          :       -9775.05746426 Ha     -265992.84716964 eV  <-- do not rely on this value for anything but (periodic) metals
  | Electronic free energy        :       -9775.05746426 Ha     -265992.84716964 eV

  Derived energy quantities:
  | Kinetic energy                :       10036.17338285 Ha      273098.17282947 eV
  | Electrostatic energy          :      -19460.03257066 Ha     -529534.42866273 eV
  | Energy correction for multipole
  | error in Hartree potential    :          -0.00325762 Ha          -0.08864430 eV
  | Sum of eigenvalues per atom                           :      -26589.52032997 eV
  | Total energy (T->0) per atom                          :      -44332.14119494 eV  <-- do not rely on this value for anything but (periodic) metals
  | Electronic free energy per atom                       :      -44332.14119494 eV

  Self-consistency convergence accuracy:
  | Change of charge density      :  0.8901E-06
  | Change of sum of eigenvalues  :  0.1647E-04 eV
  | Change of total energy        : -0.1020E-07 eV

  Preliminary charge convergence reached. Turning off preconditioner.

  Writing Kohn-Sham eigenvalues.
  K-point:       1 at    0.000000    0.000000    0.000000 (in units of recip. lattice)

  State    Occupation    Eigenvalue [Ha]    Eigenvalue [eV]
      1       2.00000        -745.470161       -20285.27518
      2       2.00000        -745.470161       -20285.27518
      3       2.00000        -103.425079        -2814.33960
      4       2.00000        -103.425079        -2814.33960
      5       2.00000         -92.444784        -2515.55055
      6       2.00000         -92.444784        -2515.55055
      7       2.00000         -92.444649        -2515.54690
      8       2.00000         -92.444649        -2515.54690
      9       2.00000         -92.444649        -2515.54690
     10       2.00000         -92.444649        -2515.54689
     11       2.00000         -88.681326        -2413.14166
     12       2.00000         -88.681326        -2413.14166
     13       2.00000         -88.681326        -2413.14166
     14       2.00000         -88.681326        -2413.14166
     15       2.00000         -17.647774         -480.22037
     16       2.00000         -17.647774         -480.22037
     17       2.00000         -14.067589         -382.79856
     18       2.00000         -14.067589         -382.79856
     19       2.00000         -14.066830         -382.77792
     20       2.00000         -14.066830         -382.77792
     21       2.00000         -14.066830         -382.77792
     22       2.00000         -14.066830         -382.77792
     23       2.00000          -8.251587         -224.53710
     24       2.00000          -8.251587         -224.53710
     25       2.00000          -8.251587         -224.53710
     26       2.00000          -8.251587         -224.53710
     27       2.00000          -8.251153         -224.52530
     28       2.00000          -8.251153         -224.52530
     29       2.00000          -8.250771         -224.51491
     30       2.00000          -8.250771         -224.51491
     31       2.00000          -8.250771         -224.51491
     32       2.00000          -8.250771         -224.51491
     33       2.00000          -7.788022         -211.92287
     34       2.00000          -7.788022         -211.92287
     35       2.00000          -7.788022         -211.92287
     36       2.00000          -7.788022         -211.92287
     37       2.00000          -5.758233         -156.68951
     38       2.00000          -5.758233         -156.68951
     39       2.00000          -5.758233         -156.68950
     40       2.00000          -5.758233         -156.68950
     41       2.00000          -5.758233         -156.68950
     42       2.00000          -5.758233         -156.68950
     43       2.00000          -5.758233         -156.68949
     44       2.00000          -5.758233         -156.68949
     45       2.00000          -5.756379         -156.63905
     46       2.00000          -5.756379         -156.63904
     47       2.00000          -5.756379         -156.63903
     48       2.00000          -5.756379         -156.63903
     49       2.00000          -2.479502          -67.47067
     50       2.00000          -2.479501          -67.47067
     51       2.00000          -1.529068          -41.60806
     52       2.00000          -1.529065          -41.60799
     53       2.00000          -1.520295          -41.36933
     54       2.00000          -1.520294          -41.36930
     55       2.00000          -1.520293          -41.36929
     56       2.00000          -1.520293          -41.36927
     57       2.00000          -0.767131          -20.87469
     58       2.00000          -0.756198          -20.57721
     59       2.00000          -0.724325          -19.70988
     60       2.00000          -0.706722          -19.23089
     61       2.00000          -0.470141          -12.79319
     62       2.00000          -0.430151          -11.70501
     63       2.00000          -0.348665           -9.48767
     64       2.00000          -0.334601           -9.10496
     65       2.00000          -0.334600           -9.10494
     66       2.00000          -0.334059           -9.09021
     67       2.00000          -0.334058           -9.09018
     68       2.00000          -0.294949           -8.02596
     69       2.00000          -0.294948           -8.02596
     70       2.00000          -0.293085           -7.97524
     71       2.00000          -0.293084           -7.97523
     72       2.00000          -0.262722           -7.14904
     73       2.00000          -0.260444           -7.08705
     74       2.00000          -0.219258           -5.96632
     75       0.00000          -0.139726           -3.80215
     76       0.00000          -0.139725           -3.80211
     77       0.00000          -0.138378           -3.76546
     78       0.00000          -0.138377           -3.76542
     79       0.00000          -0.135213           -3.67933
     80       0.00000          -0.135212           -3.67932
     81       0.00000          -0.128486           -3.49627
     82       0.00000          -0.128485           -3.49626
     83       0.00000          -0.004239           -0.11534
     84       0.00000           0.001800            0.04898
     85       0.00000           0.085959            2.33906
     86       0.00000           0.106747            2.90475
     87       0.00000           0.115507            3.14310
     88       0.00000           0.154765            4.21138
     89       0.00000           0.154766            4.21140
     90       0.00000           0.169712            4.61809
     91       0.00000           0.169712            4.61810
     92       0.00000           0.180510            4.91192
     93       0.00000           0.206212            5.61133
     94       0.00000           0.222958            6.06701
     95       0.00000           0.222959            6.06702
     96       0.00000           0.248195            6.75373
     97       0.00000           0.248195            6.75373

  What follows are estimated values for band gap, HOMO, LUMO, etc.
  | They are estimated on a discrete k-point grid and not necessarily exact.
  | For converged numbers, create a DOS and/or band structure plot on a denser k-grid.

  Highest occupied state (VBM) at     -5.96632284 eV (relative to internal zero)
  | Occupation number:      2.00000000
  | K-point:       1 at    0.000000    0.000000    0.000000 (in units of recip. lattice)

  Lowest unoccupied state (CBM) at    -5.06935623 eV (relative to internal zero)
  | Occupation number:      0.00000000
  | K-point:     239 at    0.214286    0.142857    0.000000 (in units of recip. lattice)

  ESTIMATED overall HOMO-LUMO gap:      0.89696661 eV between HOMO at k-point 1 and LUMO at k-point 239
  | This appears to be an indirect band gap.
  | Smallest direct gap :      1.78668641 eV for k_point 425 at    0.214286    0.142857    0.000000 (in units of recip. lattice)
  The gap value is above 0.2 eV. Unless you are using a very sparse k-point grid,
  this system is most likely an insulator or a semiconductor.

  Self-consistency cycle converged.

  End self-consistency iteration #    22       :  max(cpu_time)    wall_clock(cpu1)
  | Time for this iteration                    :        5.841 s           5.841 s
  | Charge density update                      :        2.783 s           2.782 s
  | Density mixing                             :        0.356 s           0.357 s
  | Hartree multipole update                   :        0.003 s           0.002 s
  | Hartree multipole summation                :        0.675 s           0.675 s
  | Integration                                :        1.413 s           1.413 s
  | Solution of K.-S. eqns.                    :        0.608 s           0.608 s
  | Total energy evaluation                    :        0.002 s           0.002 s

  Partial memory accounting:
  | Current value for overall tracked memory usage:
  |   Minimum:       19.066 MB (on task  0)
  |   Maximum:       19.359 MB (on task  1)
  |   Average:       19.310 MB
  | Peak value for overall tracked memory usage:
  |   Minimum:       35.481 MB (on task  9 after allocating gradient_basis_wave)
  |   Maximum:       37.484 MB (on task  3 after allocating gradient_basis_wave)
  |   Average:       36.677 MB
  | Largest tracked array allocation so far:
  |   Minimum:        9.671 MB (KS_eigenvector_complex on task  9)
  |   Maximum:       11.152 MB (hamiltonian_shell on task  3)
  |   Average:       10.578 MB
  Note:  These values currently only include a subset of arrays which are explicitly tracked.
  The "true" memory usage will be greater.
------------------------------------------------------------

  Energy and forces in a compact form:
  | Total energy uncorrected      :         -0.265992847169640E+06 eV
  | Total energy corrected        :         -0.265992847169640E+06 eV  <-- do not rely on this value for anything but (periodic) metals
  | Electronic free energy        :         -0.265992847169640E+06 eV

  ------------------------------------ 
  Start decomposition of the XC Energy 
  ------------------------------------ 
  X and C from original XC functional choice 
  Hartree-Fock Energy :          0.000000000 Ha              0.000000000 eV
  X Energy            :       -344.222943089 Ha          -9366.782858117 eV
  C Energy            :         -6.975333367 Ha           -189.808478268 eV
  Total XC Energy     :       -351.198276456 Ha          -9556.591336385 eV
  ------------------------------------ 
  LDA X and C from self-consistent density 
  X Energy LDA        :       -325.148784855 Ha          -8847.748604391 eV
  C Energy LDA        :        -12.821972484 Ha           -348.903623298 eV
  ------------------------------------ 
  End decomposition of the XC Energy 
  ------------------------------------ 

------------------------------------------------------------

------------------------------------------------------------------------------
  Final output of selected total energy values:

  The following output summarizes some interesting total energy values
  at the end of a run (AFTER all relaxation, molecular dynamics, etc.).

  | Total energy of the DFT / Hartree-Fock s.c.f. calculation      :        -265992.847169640 eV
  | Final zero-broadening corrected energy (caution - metals only) :        -265992.847169640 eV
  | For reference only, the value of 1 Hartree used in FHI-aims is :             27.211384500 eV
  | For reference only, the overall average (free atom contribution
  | + realspace contribution) of the electrostatic potential after
  | s.c.f. convergence is                                          :            -18.300471163 eV

  Before relying on these values, please be sure to understand exactly which
  total energy value is referred to by a given number. Different objects may
  all carry the same name 'total energy'. Definitions:

  Total energy of the DFT / Hartree-Fock s.c.f. calculation:
  | Note that this energy does not include ANY quantities calculated after the
  | s.c.f. cycle, in particular not ANY RPA, MP2, etc. many-body perturbation terms.

  Final zero-broadening corrected energy:
  | For metallic systems only, a broadening of the occupation numbers at the Fermi
  | level can be extrapolated back to zero broadening by an electron-gas inspired
  | formula. For all systems that are not real metals, this value can be
  | meaningless and should be avoided.

------------------------------------------------------------------------------
  Methods described in the following list of references were used in this FHI-aims run.
  If you publish the results, please make sure to cite these reference if they apply.
  FHI-aims is an academic code, and for our developers (often, Ph.D. students
  and postdocs), scientific credit in the community is essential.
  Thank you for helping us!

  For any use of FHI-aims, please cite:

    Volker Blum, Ralf Gehrke, Felix Hanke, Paula Havu, Ville Havu,
    Xinguo Ren, Karsten Reuter, and Matthias Scheffler
    'Ab initio molecular simulations with numeric atom-centered orbitals'
    Computer Physics Communications 180, 2175-2196 (2009)
    http://dx.doi.org/10.1016/j.cpc.2009.06.022


  The provided symmetry information was generated with SPGlib:

    Atsushi Togo, Yusuke Seto, Dimitar Pashov
    SPGlib 1.7.3 obtained from http://spglib.sourceforge.net
    Copyright (C) 2008 Atsushi Togo


  The ELSI infrastructure was used in your run to solve the Kohn-Sham electronic structure.
  Please check out http://elsi-interchange.org to learn more.
  If scalability is important for your project, please acknowledge ELSI by citing:

    V. W-z. Yu, F. Corsetti, A. Garcia, W. P. Huhn, M. Jacquelin, W. Jia,
    B. Lange, L. Lin, J. Lu, W. Mi, A. Seifitokaldani, A. Vazquez-Mayagoitia,
    C. Yang, H. Yang, and V. Blum
    'ELSI: A unified software interface for Kohn-Sham electronic structure solvers'
    Computer Physics Communications 222, 267-285 (2018).
    http://dx.doi.org/10.1016/j.cpc.2017.09.007


  For the real-space grid partitioning and parallelization used in this calculation, please cite:

    Ville Havu, Volker Blum, Paula Havu, and Matthias Scheffler,
    'Efficient O(N) integration for all-electron electronic structure calculation'
    'using numerically tabulated basis functions'
    Journal of Computational Physics 228, 8367-8379 (2009).
    http://dx.doi.org/10.1016/j.jcp.2009.08.008

  Of course, there are many other important community references, e.g., those cited in the
  above references. Our list is limited to references that describe implementations in the
  FHI-aims code. The reason is purely practical (length of this list) - please credit others as well.

------------------------------------------------------------
          Leaving FHI-aims.
          Date     :  20200320, Time     :  120348.491

          Computational steps:
          | Number of self-consistency cycles          :           22
          | Number of SCF (re)initializations          :            1

          Detailed time accounting                     :  max(cpu_time)    wall_clock(cpu1)
          | Total time                                 :      133.383 s         133.676 s
          | Preparation time                           :        0.503 s           0.531 s
          | Boundary condition initalization           :        0.134 s           0.136 s
          | Grid partitioning                          :        0.150 s           0.153 s
          | Preloading free-atom quantities on grid    :        0.023 s           0.024 s
          | Free-atom superposition energy             :        0.058 s           0.058 s
          | Total time for integrations                :       33.721 s          33.726 s
          | Total time for solution of K.-S. equations :       14.252 s          14.277 s
          | Total time for density update              :       61.089 s          61.094 s
          | Total time for mixing & preconditioning    :        7.694 s           7.697 s
          | Total time for Hartree multipole update    :        0.060 s           0.062 s
          | Total time for Hartree multipole sum       :       14.750 s          14.751 s
          | Total time for total energy evaluation     :        0.051 s           0.054 s
          | Total time for scaled ZORA corrections     :        0.000 s           0.000 s

          Partial memory accounting:
          | Residual value for overall tracked memory usage across tasks:     0.000000 MB (should be 0.000000 MB)
          | Peak values for overall tracked memory usage:
          |   Minimum:       35.481 MB (on task  9 after allocating gradient_basis_wave)
          |   Maximum:       37.484 MB (on task  3 after allocating gradient_basis_wave)
          |   Average:       36.677 MB
          | Largest tracked array allocation:
          |   Minimum:        9.671 MB (KS_eigenvector_complex on task  9)
          |   Maximum:       11.152 MB (hamiltonian_shell on task  3)
          |   Average:       10.578 MB
          Note:  These values currently only include a subset of arrays which are explicitly tracked.
          The "true" memory usage will be greater.

          Have a nice day.
------------------------------------------------------------
