------------------------------------------------------------
          Invoking FHI-aims ...

          When using FHI-aims, please cite the following reference:

          Volker Blum, Ralf Gehrke, Felix Hanke, Paula Havu,
          Ville Havu, Xinguo Ren, Karsten Reuter, and Matthias Scheffler,
          'Ab Initio Molecular Simulations with Numeric Atom-Centered Orbitals',
          Computer Physics Communications 180, 2175-2196 (2009)

          For any questions about FHI-aims, please visit the aimsclub website
          with its forums and wiki. Contributions to both the forums and the
          wiki are warmly encouraged - they are for you, and everyone is welcome there.

------------------------------------------------------------



  Date     :  20200420, Time     :  113459.539
  Time zero on CPU 1             :   0.988930000000000E-01  s.
  Internal wall clock time zero  :           356614499.539  s.

  FHI-aims created a unique identifier for this run for later identification
  aims_uuid : 6833698B-C0DB-4960-A25F-8259DA2B1C7B

  Build configuration of the current instance of FHI-aims
  -------------------------------------------------------
  FHI-aims version      : 200112
  Commit number         : 23daeca3f
  CMake host system     : Linux-3.10.0-693.21.1.el7.x86_64
  CMake version         : 3.13.3
  Fortran compiler      : /sw/installed/impi/2018.4.274-iccifort-2019.1.144-GCC-8.2.0-2.31.1/bin64/mpiifort (Intel) version 19.0.0.20181018
  Fortran compiler flags: -O3 -ip -fp-model precise
  C compiler            : /sw/installed/impi/2018.4.274-iccifort-2019.1.144-GCC-8.2.0-2.31.1/bin64/mpiicc (Intel) version 19.0.0.20181018
  C compiler flags      : -O3 -ip -fp-model precise
  Architecture          :
  Using MPI
  Using Scalapack
  Using C files
  Using LibXC
  Using SPGlib
  Using i-PI
  Using RLSY
  Linking against: /sw/installed/imkl/2019.1.144-iimpi-2019a/mkl/lib/intel64/libmkl_intel_lp64.so
                   /sw/installed/imkl/2019.1.144-iimpi-2019a/mkl/lib/intel64/libmkl_sequential.so
                   /sw/installed/imkl/2019.1.144-iimpi-2019a/mkl/lib/intel64/libmkl_core.so
                   /sw/installed/imkl/2019.1.144-iimpi-2019a/mkl/lib/intel64/libmkl_blacs_intelmpi_lp64.so
                   /sw/installed/imkl/2019.1.144-iimpi-2019a/mkl/lib/intel64/libmkl_scalapack_lp64.so

  Using       24 parallel tasks.
  Task        0 on host taurusi6508.taurus.hrsk.tu-dresden.de reporting.
  Task        1 on host taurusi6508.taurus.hrsk.tu-dresden.de reporting.
  Task        2 on host taurusi6508.taurus.hrsk.tu-dresden.de reporting.
  Task        3 on host taurusi6508.taurus.hrsk.tu-dresden.de reporting.
  Task        4 on host taurusi6508.taurus.hrsk.tu-dresden.de reporting.
  Task        5 on host taurusi6508.taurus.hrsk.tu-dresden.de reporting.
  Task        6 on host taurusi6508.taurus.hrsk.tu-dresden.de reporting.
  Task        7 on host taurusi6508.taurus.hrsk.tu-dresden.de reporting.
  Task        8 on host taurusi6508.taurus.hrsk.tu-dresden.de reporting.
  Task        9 on host taurusi6508.taurus.hrsk.tu-dresden.de reporting.
  Task       10 on host taurusi6508.taurus.hrsk.tu-dresden.de reporting.
  Task       11 on host taurusi6508.taurus.hrsk.tu-dresden.de reporting.
  Task       12 on host taurusi6508.taurus.hrsk.tu-dresden.de reporting.
  Task       13 on host taurusi6508.taurus.hrsk.tu-dresden.de reporting.
  Task       14 on host taurusi6508.taurus.hrsk.tu-dresden.de reporting.
  Task       15 on host taurusi6508.taurus.hrsk.tu-dresden.de reporting.
  Task       16 on host taurusi6508.taurus.hrsk.tu-dresden.de reporting.
  Task       17 on host taurusi6508.taurus.hrsk.tu-dresden.de reporting.
  Task       18 on host taurusi6508.taurus.hrsk.tu-dresden.de reporting.
  Task       19 on host taurusi6508.taurus.hrsk.tu-dresden.de reporting.
  Task       20 on host taurusi6508.taurus.hrsk.tu-dresden.de reporting.
  Task       21 on host taurusi6508.taurus.hrsk.tu-dresden.de reporting.
  Task       22 on host taurusi6508.taurus.hrsk.tu-dresden.de reporting.
  Task       23 on host taurusi6508.taurus.hrsk.tu-dresden.de reporting.

  Performing system and environment tests:
  | Environment variable OMP_NUM_THREADS correctly set to 1.
  | Maximum stacksize for task 0: unlimited
  | Maximum stacksize for task 1: unlimited
  | Maximum stacksize for task 2: unlimited
  | Maximum stacksize for task 3: unlimited
  | Maximum stacksize for task 4: unlimited
  | Maximum stacksize for task 5: unlimited
  | Maximum stacksize for task 6: unlimited
  | Maximum stacksize for task 7: unlimited
  | Maximum stacksize for task 8: unlimited
  | Maximum stacksize for task 9: unlimited
  | Maximum stacksize for task 10: unlimited
  | Maximum stacksize for task 11: unlimited
  | Maximum stacksize for task 12: unlimited
  | Maximum stacksize for task 13: unlimited
  | Maximum stacksize for task 14: unlimited
  | Maximum stacksize for task 15: unlimited
  | Maximum stacksize for task 16: unlimited
  | Maximum stacksize for task 17: unlimited
  | Maximum stacksize for task 18: unlimited
  | Maximum stacksize for task 19: unlimited
  | Maximum stacksize for task 20: unlimited
  | Maximum stacksize for task 21: unlimited
  | Maximum stacksize for task 22: unlimited
  | Maximum stacksize for task 23: unlimited
  | Current stacksize for task 0: unlimited
  | Current stacksize for task 1: unlimited
  | Current stacksize for task 2: unlimited
  | Current stacksize for task 3: unlimited
  | Current stacksize for task 4: unlimited
  | Current stacksize for task 5: unlimited
  | Current stacksize for task 6: unlimited
  | Current stacksize for task 7: unlimited
  | Current stacksize for task 8: unlimited
  | Current stacksize for task 9: unlimited
  | Current stacksize for task 10: unlimited
  | Current stacksize for task 11: unlimited
  | Current stacksize for task 12: unlimited
  | Current stacksize for task 13: unlimited
  | Current stacksize for task 14: unlimited
  | Current stacksize for task 15: unlimited
  | Current stacksize for task 16: unlimited
  | Current stacksize for task 17: unlimited
  | Current stacksize for task 18: unlimited
  | Current stacksize for task 19: unlimited
  | Current stacksize for task 20: unlimited
  | Current stacksize for task 21: unlimited
  | Current stacksize for task 22: unlimited
  | Current stacksize for task 23: unlimited
  | Checking for scalapack...
  | Testing pdtran()...
  | All pdtran() tests passed.

  Obtaining array dimensions for all initial allocations:
  
  -----------------------------------------------------------------------
  Parsing control.in (first pass over file, find array dimensions only).
  The contents of control.in will be repeated verbatim below
  unless switched off by setting 'verbatim_writeout .false.' .
  in the first line of control.in .
  -----------------------------------------------------------------------
  
  #===============================================================================
  # FHI-aims file: ./control.in
  # Created using the Atomic Simulation Environment (ASE)
  # Thu Apr  2 11:27:09 2020
  #===============================================================================
  xc                                 pbe
  # include_spin_orbit
  # vdw_correction_hirshfeld
  many_body_dispersion_nl 	 beta=0.81
  spin                               none
  k_grid 	 	 6 6 5
  relativistic                       atomic_zora scalar
  energy_tolerance 1e-2
  harmonic_length_scale  0.015
  ### SCF settings
  adjust_scf 	 always 	 3
  # frozen_core_scf 	 .true.
  # charge_mix_param  0.05
  # occupation_type 	 gaussian 	 0.01
  # sc_accuracy_eev   1E-3 	 	 # sum of eigenvalues convergence
  # sc_accuracy_etot  1E-6 	 	 # total energy convergence
  # sc_accuracy_rho   1E-3 	 	 # electron density convergence
  # elsi_restart 	 read_and_write 	 1000
  ### geometry optimisation section
  relax_geometry 	 bfgs 	 1E-2
  relax_unit_cell 	 full
  #===============================================================================
  
  ################################################################################
  #
  #  FHI-aims code project
  # Volker Blum, Fritz Haber Institute Berlin, 2009
  #
  #  Suggested "tight" defaults for Pd atom (to be pasted into control.in file)
  #
  ################################################################################
    species        Pd
  #     global species definitions
      nucleus             46
      mass                106.42
  #
      l_hartree           6
  #
      cut_pot             4.0  2.0  1.0
      basis_dep_cutoff    1e-4
  #
      radial_base         62 7.0
      radial_multiplier   2
      angular_grids specified
        division   0.3627   50
        division   0.7349  110
        division   1.0624  194
        division   1.2496  302
        division   1.6740  434
  #      division   2.0126  590
  #      division   2.0830  770
  #      division   2.7936 1202
  #       outer_grid  974
        outer_grid  434
  ################################################################################
  #
  #  Definition of "minimal" basis
  #
  ################################################################################
  #     valence basis states
      valence      5  s   1.
      valence      4  p   6.
      valence      4  d   9.
  #     ion occupancy
      ion_occ     5  s   0.
      ion_occ     4  p   6.
      ion_occ     4  d   8.
  ################################################################################
  #
  #  Suggested additional basis functions. For production calculations,
  #  uncomment them one after another (the most important basis functions are
  #  listed first).
  #
  #  Constructed for dimers: 2.0 A, 2.275 A, 2.75 A, 3.75 A
  #
  ################################################################################
  #  "First tier" - max. impr. -120.76  meV, min. impr. -5.71 meV
       ionic 5 p auto
       hydro 4 f 8
       hydro 5 g 10
       hydro 3 s 2.6
       hydro 3 d 2.5
  #  "Second tier" - max. impr. -5.00  meV, min. impr. -0.62 meV
  #     hydro 5 f 17.2
  #     hydro 6 h 14
  #     hydro 4 d 4
  #     hydro 5 f 7.6
  #     hydro 3 p 3.3
  #     hydro 4 s 9.4
  #  "Third tier" - max. impr. -0.54  meV, min. impr. -0.14 meV
  #     hydro 4 f 20
  #     hydro 5 g 12.8
  #     hydro 5 d 9.8
  #     hydro 6 h 15.2
  #     hydro 5 s 10
  #     hydro 6 p 9.8
  #  "Fourth tier" - max. impr. -0.15  meV, min. impr. -0.05 meV
  #     hydro 5 f 9.2
  #     hydro 2 s 5.6
  #     hydro 5 f 43.2
  #     hydro 5 d 13.2
  #     hydro 5 g 14
  #     hydro 4 p 4.7
  ################################################################################
  #
  #  FHI-aims code project
  # Volker Blum, Fritz Haber Institute Berlin, 2009
  #
  #  Suggested "tight" defaults for Se atom (to be pasted into control.in file)
  #
  ################################################################################
    species        Se
  #     global species definitions
      nucleus             34
      mass                78.96
  #
      l_hartree           6
  #
      cut_pot             4.0          2.0  1.0
      basis_dep_cutoff    1e-4
  #
      radial_base         55 7.0
      radial_multiplier   2
      angular_grids       specified
        division   0.0830  110
        division   0.1357  194
        division   0.7377  302
        division   0.8610  434
  #      division   0.9640  590
  #      division   1.0773  770
  #      division   2.5539  974
  #      outer_grid  974
        outer_grid  434
  ################################################################################
  #
  #  Definition of "minimal" basis
  #
  ################################################################################
  #     valence basis states
      valence      4  s   2.
      valence      4  p   4.
      valence      3  d  10.
  #     ion occupancy
      ion_occ      4  s   1.
      ion_occ      4  p   3.
      ion_occ      3  d  10.
  ################################################################################
  #
  #  Suggested additional basis functions. For production calculations,
  #  uncomment them one after another (the most important basis functions are
  #  listed first).
  #
  #  Constructed for dimers: 1.85 A, 2.15 A, 2.50 A, 3.00 A, 4.00 A
  #
  ################################################################################
  #  "First tier" - improvements: -336.21 meV to -36.85 meV
       hydro 3 d 4.3
       hydro 2 p 1.6
       hydro 4 f 7.2
       ionic 4 s auto
  #  "Second tier" - improvements: -14.39 meV to -1.49 meV
  #     hydro 5 g 10.4
  #     hydro 4 p 4.5
  #     hydro 4 d 6.2
  #     hydro 4 f 11.2
  #     hydro 1 s 0.65
  #     hydro 6 h 15.2
  #  "Third tier" - improvements: -0.46 meV and below
  #     hydro 5 g 14.4
  #     ionic 4 d auto
  #     hydro 4 f 22.4
  #     hydro 5 f 7.4
  #     hydro 5 p 8
  #     hydro 5 s 9.4
  #  "Fourth tier" - improvements: -0.12 meV and below
  #     hydro 5 d 11.6
  #     hydro 6 h 18
  #     hydro 4 p 4
  #     hydro 5 f 16
  #     hydro 4 s 3.9
  #
  #
  
  -----------------------------------------------------------------------
  Completed first pass over input file control.in .
  -----------------------------------------------------------------------
  
  
  -----------------------------------------------------------------------
  Parsing geometry.in (first pass over file, find array dimensions only).
  The contents of geometry.in will be repeated verbatim below
  unless switched off by setting 'verbatim_writeout .false.' .
  in the first line of geometry.in .
  -----------------------------------------------------------------------
  
  #
  # This is the geometry file that corresponds to the current relaxation step.
  # If you do not want this file to be written, set the "write_restart_geometry" flag to .false.
  #  aims_uuid : FC2F63C4-C931-480A-A09B-FACC5092551E
  #
  lattice_vector      5.83939028      0.00000000      0.00000000
  lattice_vector      0.00000000      5.95053829      0.00000000
  lattice_vector      0.00000000      0.00000000      7.50475497
  atom_frac       0.50147398      0.00087310      0.00074710 Pd
  atom_frac       0.00085644      0.00084925      0.50160763 Pd
  atom_frac       0.00089849      0.50146790      0.00072849 Pd
  atom_frac       0.50153882      0.50144321      0.50162384 Pd
  atom_frac       0.61314802      0.11909163      0.40384955 Se
  atom_frac       0.89041641      0.88396051      0.90437528 Se
  atom_frac       0.11255248      0.38336979      0.59929553 Se
  atom_frac       0.38986350      0.61971098      0.09855464 Se
  atom_frac       0.38984293      0.88388846      0.59929220 Se
  atom_frac       0.11253141      0.11898118      0.09845662 Se
  atom_frac       0.89039155      0.61970896      0.40387455 Se
  atom_frac       0.61315134      0.38332042      0.90425996 Se
  #
  # What follows is the current estimated Hessian matrix constructed by the BFGS algorithm.
  # This is NOT the true Hessian matrix of the system.
  # If you do not want this information here, switch it off using the "hessian_to_restart_geometry" keyword.
  #
  trust_radius             0.0122015458
  hessian_block                1       1           6.345211          -0.634685          -2.343711          -0.634685           7.49126
  hessian_block                1       2          -0.728172           1.828686           0.359589          -0.587235           2.26661
  hessian_block                1       3          -1.191646           2.868303           0.593300           0.036535          -0.62119
  hessian_block                1       4           0.585035           0.235699          -0.065246           0.004711          -0.03062
  hessian_block                1       5           0.193370          -1.213484          -0.303165          -1.201111           1.18649
  hessian_block                1       6          -0.570215          -1.908183           0.241636           1.939024          -3.17804
  hessian_block                1       7          -0.971739           0.962662           0.402237           0.648314          -0.49834
  hessian_block                1       8           0.620045          -2.044628          -0.078772          -0.043516          -2.82700
  hessian_block                1       9           0.042749          -0.238771           0.067061           0.412006          -1.49369
  hessian_block                1      10          -3.772026           3.304012           1.556353          -1.690406           3.12128
  hessian_block                1      11           0.877902          -1.569526          -0.464791           0.728984          -1.44170
  hessian_block                1      12           0.135397          -1.590088           0.035508           0.387378          -2.32803
  hessian_block                2       2           7.616635           2.283613           3.687347           2.283613           9.74773
  hessian_block                2       3           3.398923           4.054657           2.667197          -0.827178          -0.92021
  hessian_block                2       4           0.219765           0.502883           0.070874          -0.326382           0.72056
  hessian_block                2       5          -2.969472          -0.875598          -1.665147           1.625490           1.25680
  hessian_block                2       6          -2.955657          -3.347640          -2.301604          -3.146615          -5.12630
  hessian_block                2       7           0.691969           0.681780           0.615301          -1.295185          -2.96768
  hessian_block                2       8          -1.675190          -2.546655          -1.616810          -0.789184          -1.78604
  hessian_block                2       9          -2.272210          -0.074101          -1.199373          -0.574966          -2.77759
  hessian_block                2      10           3.418343           3.604329           2.759735           3.639014           5.62679
  hessian_block                2      11          -1.716948          -2.491835          -1.498788          -1.723081          -4.36904
  hessian_block                2      12          -1.462073          -1.204197          -0.839114          -0.694214          -0.02458
  hessian_block                3       3          10.659324          -1.140728           4.804249          -1.140728           6.27971
  hessian_block                3       4           0.284350          -0.256245          -0.057053          -0.023995           0.14561
  hessian_block                3       5          -1.861490           0.290927          -0.989157           1.921242           0.02329
  hessian_block                3       6          -4.763986           1.430863          -2.731791          -5.035128          -0.89189
  hessian_block                3       7           1.513576          -0.040637           1.155304          -1.352948           0.33746
  hessian_block                3       8          -4.616563           0.069074          -2.365934          -2.181270          -0.06140
  hessian_block                3       9          -0.782762           0.445288          -0.207908          -2.218511           0.27236
  hessian_block                3      10           5.229269          -0.391232           2.840253           6.962529          -2.94269
  hessian_block                3      11          -2.539263           0.385928          -1.546684          -2.405375           0.14881
  hessian_block                3      12          -3.763822          -0.002595          -1.725508          -1.448777          -0.12283
  hessian_block                4       4           5.935252           0.035146          -2.022829           0.035146           6.72568
  hessian_block                4       5          -0.476335           0.659962           0.034988           0.027255          -1.64270
  hessian_block                4       6          -0.133038           0.047619          -0.496122          -0.175129          -1.10607
  hessian_block                4       7          -2.091965          -0.347220           0.945338          -0.243300          -0.45608
  hessian_block                4       8          -0.106466          -0.410692          -0.480386           0.051255          -0.72474
  hessian_block                4       9          -0.282872           0.550083           0.109854           0.226962          -2.71929
  hessian_block                4      10          -0.429445          -0.062483           0.531600          -0.351121           1.30823
  hessian_block                4      11          -1.735769          -0.554523           0.599367          -0.548832          -0.99997
  hessian_block                4      12          -0.202602           0.427774          -0.163744           0.495424           0.42642
  hessian_block                5       5           5.785182          -0.979261          -1.226129          -0.979261           7.21682
  hessian_block                5       6           1.760754          -1.859064           0.260080           1.676488          -2.73931
  hessian_block                5       7          -0.566358           1.945358          -0.837000          -0.322361          -0.49230
  hessian_block                5       8           0.633743          -1.507332           1.212810           0.900840          -0.83710
  hessian_block                5       9          -1.245595          -0.600931           1.960857           0.204496          -2.87843
  hessian_block                5      10          -1.708414           2.834184          -0.439253          -1.563711           3.59536
  hessian_block                5      11           1.040096          -2.016682           0.982680           1.303344          -1.81968
  hessian_block                5      12           0.980431          -0.189147          -0.640093          -0.081642          -1.22221
  hessian_block                6       6           8.482489           4.640364           8.781532           4.640364          12.12880
  hessian_block                6       7          -1.298338          -2.172568          -3.620766           1.168630           1.82955
  hessian_block                6       8           2.373223           3.736884           5.483937           1.558639           2.46891
  hessian_block                6       9           0.492273           0.771810           1.065510           1.822987           3.58628
  hessian_block                6      10          -5.771881          -6.623647         -11.528425          -6.617169          -9.67203
  hessian_block                6      11           2.122577           3.011575           4.773326           2.184880           3.60580
  hessian_block                6      12           1.827708           1.376940           2.519345           0.878074           0.74132
  hessian_block                7       7           6.148850          -0.159918           1.174575          -0.159918           6.12133
  hessian_block                7       8          -1.452680           1.008230          -0.057233          -0.519419           0.31522
  hessian_block                7       9           0.083569           0.709164          -0.231502          -1.551666           0.29417
  hessian_block                7      10           2.119007          -1.767218          -1.001722           2.823983          -2.61884
  hessian_block                7      11          -2.699131           1.300708          -1.632117          -0.574835          -0.82771
  hessian_block                7      12           0.089150           0.305881           0.985416          -1.047521           0.61024
  hessian_block                8       8           6.568245           0.958616          -2.310430           0.958616           6.47382
  hessian_block                8       9           0.702452          -0.257906          -0.542044           1.821909           1.25571
  hessian_block                8      10          -3.001836          -1.754894           2.000108          -4.461649          -2.91585
  hessian_block                8      11           1.883331           0.596085          -1.462097           1.660556           1.79316
  hessian_block                8      12          -0.362392           1.480754           1.561185           1.715683          -1.50764
  hessian_block                9       9           5.164783          -0.265110          -0.849359          -0.265110           7.55778
  hessian_block                9      10          -0.590466          -2.006223          -0.419039          -0.993788          -3.77699
  hessian_block                9      11           0.114698           1.944617          -0.480408          -0.302130           2.19385
  hessian_block                9      12           0.139293           0.183498           1.018629           0.256392           0.13285
  hessian_block               10      10          10.790732           7.266238           8.334123           7.266238          15.61690
  hessian_block               10      11          -2.799827          -3.515274          -3.557454          -2.624497          -4.19726
  hessian_block               10      12          -1.917547          -1.498649          -1.858087          -1.778569          -1.49785
  hessian_block               11      11           6.562522           1.826581           1.952044           1.826581           7.48721
  hessian_block               11      12           0.455723           0.474405          -0.661159           1.082345           0.07354
  hessian_block               12      12           5.646645           0.235426          -0.232378           0.235426           6.36579
  hessian_block_lv             1       1          22.120386          -5.497969           4.215273          -5.497969          19.80210
  hessian_block_lv_atom        1       1          -0.705711          -0.576682          -0.777490           0.635771           1.29666
  hessian_block_lv_atom        1       2           0.687319           1.277276           1.202570           1.339032           1.63416
  hessian_block_lv_atom        1       3           1.271759           1.980520           2.094691          -0.221046          -0.22614
  hessian_block_lv_atom        1       4          -0.214309          -0.035413          -0.109966           0.542854           0.08253
  hessian_block_lv_atom        1       5           0.036609          -0.557989          -0.174737           1.290111           1.79226
  hessian_block_lv_atom        1       6          -0.839355          -2.184540          -1.986241          -2.017523          -2.94710
  hessian_block_lv_atom        1       7           0.897379           1.073296           1.435395          -1.008781          -0.93984
  hessian_block_lv_atom        1       8          -1.442227          -1.132119          -1.998965          -0.325967          -0.24261
  hessian_block_lv_atom        1       9          -0.265475          -0.159180          -0.653494          -1.354503          -1.87339
  hessian_block_lv_atom        1      10           1.448555           2.514679           2.669657           2.766270           3.17455
  hessian_block_lv_atom        1      11          -1.139410          -1.593528          -1.691796          -0.840534          -0.68967
  hessian_block_lv_atom        1      12           0.264863          -0.606323          -0.009625          -0.805686          -1.06140
  symmetry_n_params 39 3 36
  symmetry_params a1 b2 c3 x0 x1 x2 x3 x4 x5 x6 x7 x8 x9 x10 x11 x12 x13 x14 x15 x16 x17 x18 x19 x20 x21 x22 x23 x24 x25 x26 x27 x28 x
  symmetry_lv a1 , 0 , 0
  symmetry_lv 0 , b2 , 0
  symmetry_lv 0 , 0 , c3
  symmetry_frac x0 , x1 , x2
  symmetry_frac x3 , x4 , x5
  symmetry_frac x6 , x7 , x8
  symmetry_frac x9 , x10 , x11
  symmetry_frac x12 , x13 , x14
  symmetry_frac x15 , x16 , x17
  symmetry_frac x18 , x19 , x20
  symmetry_frac x21 , x22 , x23
  symmetry_frac x24 , x25 , x26
  symmetry_frac x27 , x28 , x29
  symmetry_frac x30 , x31 , x32
  symmetry_frac x33 , x34 , x35
  
  -----------------------------------------------------------------------
  Completed first pass over input file geometry.in .
  -----------------------------------------------------------------------
  

  Basic array size parameters:
  | Number of species                 :        2
  | Number of atoms                   :       12
  | Number of lattice vectors         :        3
  | Max. basis fn. angular momentum   :        4
  | Max. atomic/ionic basis occupied n:        5
  | Max. number of basis fn. types    :        3
  | Max. radial fns per species/type  :       10
  | Max. logarithmic grid size        :     1444
  | Max. radial integration grid size :      125
  | Max. angular integration grid size:      434
  | Max. angular grid division number :        8
  | Radial grid for Hartree potential :     1444
  | Number of spin channels           :        1

------------------------------------------------------------
          Reading file control.in.
------------------------------------------------------------
  XC: Using PBE gradient-corrected functionals.
  Using libMBD for calculating MBD and TS energies
  Spin treatment: No spin polarisation.
  Found k-point grid:         6         6         5
  Scalar relativistic treatment of kinetic energy: on-site free-atom approximation to ZORA.
  Max energy increase before discarding BFGS move:   0.100000E-01 eV
  Assuming qualitatively harmonic for steps shorter than   0.150000E-01 A.
  S.C.F. convergence parameters will be adjusted in iteration number     3 of each new s.c.f. cycle.
  Geometry relaxation: Modified BFGS - TRM (trust radius method) for lattice optimization.
  Convergence accuracy for geometry relaxation: Maximum force <   0.100000E-01 eV/A.
 
  Reading configuration options for species Pd                  .
  | Found nuclear charge :  46.0000
  | Found atomic mass :    106.420000000000      amu
  | Found l_max for Hartree potential  :   6
  | Found cutoff potl. onset [A], width [A], scale factor :    4.00000    2.00000    1.00000
  | Threshold for basis-dependent cutoff potential is   0.100000E-03
  | Found data for basic radial integration grid :    62 points, outermost radius =    7.000 A
  | Found multiplier for basic radial grid :   2
  | Found angular grid specification: user-specified.
  | Specified grid contains     6 separate shells.
  | Check grid settings after all constraints further below.
  | Found free-atom valence shell :  5 s   1.000
  | Found free-atom valence shell :  4 p   6.000
  | Found free-atom valence shell :  4 d   9.000
  | Found free-ion valence shell :  5 s   0.000
  | Found free-ion valence shell :  4 p   6.000
  | Found free-ion valence shell :  4 d   8.000
  | Found ionic basis function :  5 p , default cutoff radius.
  | Found hydrogenic basis function :  4 f   8.000
  | Found hydrogenic basis function :  5 g  10.000
  | Found hydrogenic basis function :  3 s   2.600
  | Found hydrogenic basis function :  3 d   2.500
  Species Pd                  : Missing cutoff potential type.
  Defaulting to exp(1/x)/(1-x)^2 type cutoff potential.
  Species Pd: No 'logarithmic' tag. Using default grid for free atom:
  | Default logarithmic grid data [bohr] : 0.1000E-03 0.1000E+03 0.1012E+01
  | Will include ionic basis functions of  2.0-fold positive Pd                   ion.
  Species Pd: On-site basis accuracy parameter (for Gram-Schmidt orthonormalisation) not specified.
  Using default value basis_acc =  0.1000000E-03.
  Species Pd                  : Using default innermost maximum threshold i_radial=  2 for radial functions.
  Species Pd                  : Default cutoff onset for free atom density etc. : 0.40000000E+01 AA.
  Species Pd                  : Basic radial grid will be enhanced according to radial_multiplier =   2, to contain   125 grid points.
 
  Reading configuration options for species Se                  .
  | Found nuclear charge :  34.0000
  | Found atomic mass :    78.9600000000000      amu
  | Found l_max for Hartree potential  :   6
  | Found cutoff potl. onset [A], width [A], scale factor :    4.00000    2.00000    1.00000
  | Threshold for basis-dependent cutoff potential is   0.100000E-03
  | Found data for basic radial integration grid :    55 points, outermost radius =    7.000 A
  | Found multiplier for basic radial grid :   2
  | Found angular grid specification: user-specified.
  | Specified grid contains     5 separate shells.
  | Check grid settings after all constraints further below.
  | Found free-atom valence shell :  4 s   2.000
  | Found free-atom valence shell :  4 p   4.000
  | Found free-atom valence shell :  3 d  10.000
  | Found free-ion valence shell :  4 s   1.000
  | Found free-ion valence shell :  4 p   3.000
  | Found free-ion valence shell :  3 d  10.000
  | Found hydrogenic basis function :  3 d   4.300
  | Found hydrogenic basis function :  2 p   1.600
  | Found hydrogenic basis function :  4 f   7.200
  | Found ionic basis function :  4 s , default cutoff radius.
  Species Se                  : Missing cutoff potential type.
  Defaulting to exp(1/x)/(1-x)^2 type cutoff potential.
  Species Se: No 'logarithmic' tag. Using default grid for free atom:
  | Default logarithmic grid data [bohr] : 0.1000E-03 0.1000E+03 0.1012E+01
  | Will include ionic basis functions of  2.0-fold positive Se                   ion.
  Species Se: On-site basis accuracy parameter (for Gram-Schmidt orthonormalisation) not specified.
  Using default value basis_acc =  0.1000000E-03.
  Species Se                  : Using default innermost maximum threshold i_radial=  2 for radial functions.
  Species Se                  : Default cutoff onset for free atom density etc. : 0.40000000E+01 AA.
  Species Se                  : Basic radial grid will be enhanced according to radial_multiplier =   2, to contain   111 grid points.
 
  Finished reading input file 'control.in'. Consistency checks are next.
 
  MPI_IN_PLACE appears to work with this MPI implementation.
  | Keeping use_mpi_in_place .true. (see manual).
  Target number of points in a grid batch is not set. Defaulting to  100
  Method for grid partitioning is not set. Defaulting to parallel hash+maxmin partitioning.
  Batch size limit is not set. Defaulting to    200
  By default, will store active basis functions for each batch.
  If in need of memory, prune_basis_once .false. can be used to disable this option.
  communication_type for Hartree potential was not specified.
  Defaulting to calc_hartree .
  Defaulting to Pulay charge density mixer.
  Pulay mixer: Number of relevant iterations not set.
  Defaulting to    8 iterations.
  Pulay mixer: Number of initial linear mixing iterations not set.
  Defaulting to    0 iterations.
  Work space size for distributed Hartree potential not set.
  Defaulting to   0.200000E+03 MB.
  Mixing parameter for charge density mixing has not been set.
  Using default: charge_mix_param =     0.0500.
  The mixing parameter will be adjusted in iteration number     3 of each s.c.f. cycle (i.e., each geometry step).
  Algorithm-dependent basis array size parameters:
  | n_max_pulay                         :        8
  Maximum number of self-consistency iterations not provided.
  Presetting  1000 iterations.
  Presetting      1001 iterations before the initial mixing cycle
  is restarted anyway using the sc_init_iter criterion / keyword.
  Presetting a factor      1.000 between actual scf density residual
  and density convergence criterion sc_accuracy_rho below which sc_init_iter
  takes no effect.
 * No s.c.f. convergence criteria (sc_accuracy_*) were provided in control.in.
 * The run will proceed with a reasonable default guess, but please check whether.
 * the s.c.f. cycles seem to take too much or too little time.
  No maximum number of relaxation steps, defaulting to     1000
  Using explicit Hessian from geometry.in.
  Maximum energy tolerance by which TRM/BFGS trajectory may increase over multiple steps:   0.300000E-02
  No trust radius initializer. Defaulting to   0.200000E+00 A.
  Unit cell relaxation: Unit cell will be relaxed fully.
  Unit cell relaxation: Analytical stress will be used.
  Analytical stress will be computed.
  Analytical stress calculation: Only the upper triangle is calculated.
                                 Final output is symmetrized.
  Analytical stress calculation: scf convergence accuracy of stress not set.
                                 Analytical stress self-consistency will not be checked explicitly.
                                 Be sure to set other criteria like sc_accuracy_rho tight enough.
 * Notice: The s.c.f. convergence criterion sc_accuracy_rho was not provided.
 * We used to stop in this case, and ask the user to provide reasonable
 * scf convergence criteria. However, this led some users to employ criteria
 * that led to extremely long run times, e.g., for simple relaxation.
 * We now preset a default value for sc_accuracy_rho if it is not set.
 * You may still wish to check if this setting is too tight or too loose for your needs.
 * Based on n_atoms, FHI-aims chose sc_accuracy_rho =  0.141421E-05 .
  Force calculation: scf convergence accuracy of forces not set.
  Defaulting to 'sc_accuracy_forces not_checked'.
  Handling of forces: Unphysical translation and rotation will be removed from forces.
  No accuracy limit for integral partition fn. given. Defaulting to  0.1000E-14.
  No threshold value for u(r) in integrations given. Defaulting to  0.1000E-05.
  No occupation type (smearing scheme) given. Defaulting to Gaussian broadening, width =  0.1000E-01 eV.
  The width will be adjusted in iteration number     3 of each s.c.f. cycle (i.e., each geometry step).
  S.C.F. convergence parameters will be adjusted in iteration number     3 of the first full s.c.f. cycle only.
  No accuracy for occupation numbers given. Defaulting to  0.1000E-12.
  No threshold value for occupation numbers given. Defaulting to  0.0000E+00.
  No accuracy for fermi level given. Defaulting to  0.1000E-19.
  Maximum # of iterations to find E_F not set. Defaulting to  200.
  Preferred method for the eigenvalue solver ('KS_method') not specified in 'control.in'.
  Defaulting to serial version, LAPACK (via ELSI), since more k-points than CPUs available.
  Will not use alltoall communication since running on < 1024 CPUs.
  Threshold for basis singularities not set.
  Default threshold for basis singularities:  0.1000E-04
  partition_type (choice of integration weights) for integrals was not specified.
  | Using a version of the partition function of Stratmann and coworkers ('stratmann_sparse').
  | At each grid point, the set of atoms used to build the partition table is smoothly restricted to
  | only those atoms whose free-atom density would be non-zero at that grid point.
  Partitioning for Hartree potential was not defined. Using partition_type for integrals.
  | Adjusted default value of keyword multip_moments_threshold to:       0.10000000E-11
  | This value may affect high angular momentum components of the Hartree potential in periodic systems.
  Angular momentum expansion for Kerker preconditioner not set explicitly.
  | Using default value of   0
  No explicit requirement for turning off preconditioner.
  | By default, it will be turned off when the charge convergence reaches
  | sc_accuracy_rho  =   0.141421E-05
  No special mixing parameter while Kerker preconditioner is on.
  Using default: charge_mix_param =     0.0500.
  No q(lm)/r^(l+1) cutoff set for long-range Hartree potential.
  | Using default value of  0.100000E-09 .
  | Verify using the multipole_threshold keyword.
  Defaulting to new monopole extrapolation.
  Density update method: automatic selection selected.
  Using density matrix based charge density update.
  Using density matrix based charge density update.
  Using packed matrix style: index .
  Geometry relaxation: A file "geometry.in.next_step" is written out by default after each step.
  | This file contains the geometry of the current relaxation step as well as
  | the current Hessian matrix needed to restart the relaxation algorithm.
  | If you do not want part or all of this information, use the keywords
  | "write_restart_geometry" or "hessian_to_restart_geometry" to switch the output off.
  Defaulting to use time-reversal symmetry for k-point grid.
  Charge integration errors on the 3D integration grid will be compensated
  by explicit normalization and distribution of residual charges.
  Use the "compensate_multipole_errors" flag to change this behaviour.
------------------------------------------------------------


------------------------------------------------------------
          Reading geometry description geometry.in.
------------------------------------------------------------
  Input structure read successfully.
  The structure contains       12 atoms,  and a total of        456.000 electrons.

  Input geometry:
  | Unit cell:
  |        5.83939028        0.00000000        0.00000000
  |        0.00000000        5.95053829        0.00000000
  |        0.00000000        0.00000000        7.50475497
  | Atomic structure:
  |       Atom                x [A]            y [A]            z [A]
  |    1: Species Pd            2.92830228        0.00519541        0.00560680
  |    2: Species Pd            0.00500109        0.00505349        3.76444235
  |    3: Species Pd            0.00524663        2.98400394        0.00546714
  |    4: Species Pd            2.92868091        2.98385702        3.76456401
  |    5: Species Se            3.58041059        0.70865930        3.03079192
  |    6: Species Se            5.19948893        5.26004086        6.78711488
  |    7: Species Se            0.65723786        2.28125661        4.49756611
  |    8: Species Se            2.27656513        3.68761392        0.73962842
  |    9: Species Se            2.27644502        5.25961213        4.49754112
  |   10: Species Se            0.65711482        0.70800207        0.73889281
  |   11: Species Se            5.19934376        3.68760190        3.03097954
  |   12: Species Se            3.58042997        2.28096284        6.78624943

  Lattice parameters for 3D lattice (in Angstroms) :     5.839390    5.950538    7.504755
  Angle(s) between unit vectors (in degrees)       :    90.000000   90.000000   90.000000

  | The smallest distance between any two atoms is         2.39990414 AA.
  | The first atom of this pair is atom number                      6 .
  | The second atom of this pair is atom number                    10 .
  | Wigner-Seitz cell of the first atom image           0     0     0 .
  | (The Wigner-Seitz cell of the second atom is 0 0 0  by definition.)

  Symmetry information by spglib:
  | Precision set to  0.1E-04
  | Number of Operations  : 1
  | Space group           : 1
  | International         : P1  I
  | Schoenflies           : C1^1

  Quantities derived from the lattice vectors:
  | Reciprocal lattice vector 1:  1.076000  0.000000  0.000000
  | Reciprocal lattice vector 2:  0.000000  1.055902  0.000000
  | Reciprocal lattice vector 3:  0.000000  0.000000  0.837227
  | Unit cell volume                               :   0.260772E+03  A^3

  Range separation radius for Ewald summation (hartree_convergence_parameter):      4.00716731 bohr.

  Fractional coordinates:
                         L1                L2                L3
       atom_frac         0.50147398        0.00087310        0.00074710  Pd
       atom_frac         0.00085644        0.00084925        0.50160763  Pd
       atom_frac         0.00089849        0.50146790        0.00072849  Pd
       atom_frac         0.50153882        0.50144321        0.50162384  Pd
       atom_frac         0.61314802        0.11909163        0.40384955  Se
       atom_frac         0.89041641        0.88396051        0.90437528  Se
       atom_frac         0.11255248        0.38336979        0.59929553  Se
       atom_frac         0.38986350        0.61971098        0.09855464  Se
       atom_frac         0.38984293        0.88388846        0.59929220  Se
       atom_frac         0.11253141        0.11898118        0.09845662  Se
       atom_frac         0.89039155        0.61970896        0.40387455  Se
       atom_frac         0.61315134        0.38332042        0.90425996  Se

  Number of empty states per atom not set in control.in - providing a guess from actual geometry.
  | Total number of empty states used during s.c.f. cycle:       66
  If you use a very high smearing, use empty_states (per atom!) in control.in to increase this value.

  Structure-dependent array size parameters: 
  | Maximum number of distinct radial functions  :       27
  | Maximum number of basis functions            :      468
  | Number of Kohn-Sham states (occupied + empty):      294
------------------------------------------------------------

------------------------------------------------------------
          Preparing all fixed parts of the calculation.
------------------------------------------------------------
  Determining machine precision:
    2.225073858507201E-308
  Setting up grids for atomic and cluster calculations.

  Creating wave function, potential, and density for free atoms.

  Species: Pd

  List of occupied orbitals and eigenvalues:
    n    l              occ      energy [Ha]    energy [eV]
    1    0           2.0000      -913.269104    -24851.3168
    2    0           2.0000      -130.434372     -3549.2998
    3    0           2.0000       -23.521804      -640.0609
    4    0           2.0000        -3.256918       -88.6253
    5    0           1.0000        -0.157260        -4.2793
    2    1           6.0000      -116.910756     -3181.3035
    3    1           6.0000       -19.103344      -519.8284
    4    1           6.0000        -1.998052       -54.3697
    3    2          10.0000       -12.098182      -329.2083
    4    2           9.0000        -0.243389        -6.6230


  Species: Se

  List of occupied orbitals and eigenvalues:
    n    l              occ      energy [Ha]    energy [eV]
    1    0           2.0000      -466.337810    -12689.6975
    2    0           2.0000       -59.202598     -1610.9847
    3    0           2.0000        -7.847116      -213.5309
    4    0           2.0000        -0.634372       -17.2621
    2    1           6.0000       -52.061107     -1416.6548
    3    1           6.0000        -5.620941      -152.9536
    4    1           4.0000        -0.238469        -6.4891
    3    2          10.0000        -1.951949       -53.1152

  Creating fixed part of basis set: Ionic, confined, hydrogenic.
 
  Pd                   ion:

  List of free ionic orbitals and eigenvalues:
    n    l      energy [Ha]    energy [eV]
    1    0      -914.099884    -24873.9234
    2    0      -131.248265     -3571.4470
    3    0       -24.332473      -662.1203
    4    0        -4.059276      -110.4585
    2    1      -117.724296     -3203.4411
    3    1       -19.913908      -541.8850
    4    1        -2.795328       -76.0648
    3    2       -12.908733      -351.2645
    4    2        -1.004248       -27.3270


  List of ionic basis orbitals and eigenvalues:
    n    l      energy [Ha]    energy [eV]    outer radius [A]
    5    1        -0.516938       -14.0666       5.427025

 
  Pd                   hydrogenic:
 
  List of hydrogenic basis orbitals: 
    n    l      effective z      eigenvalue [eV]  inner max. [A]     outer max. [A]     outer radius [A]   
    4    3         8.000000       -54.4226           1.054686           1.054686           4.629581
    5    4        10.000000       -54.4226           1.330451           1.330451           5.043202
    3    0         2.600000        -9.8948           0.150992           2.606197           5.493778
    3    2         2.500000        -9.3396           1.873517           1.873517           5.493778
 
 
  Se                   ion:

  List of free ionic orbitals and eigenvalues:
    n    l      energy [Ha]    energy [eV]
    1    0      -467.261007    -12714.8189
    2    0       -60.104893     -1635.5374
    3    0        -8.743714      -237.9286
    4    0        -1.414053       -38.4783
    2    1       -52.964156     -1441.2280
    3    1        -6.516916      -177.3343
    4    1        -0.961869       -26.1738
    3    2        -2.844511       -77.4031


  List of ionic basis orbitals and eigenvalues:
    n    l      energy [Ha]    energy [eV]    outer radius [A]
    4    0        -1.414046       -38.4782       4.083166

 
  Se                   hydrogenic:
 
  List of hydrogenic basis orbitals: 
    n    l      effective z      eigenvalue [eV]  inner max. [A]     outer max. [A]     outer radius [A]   
    3    2         4.300000       -27.9518           1.103845           1.103845           5.278265
    2    1         1.600000        -8.6828           1.326010           1.326010           5.475439
    4    3         7.200000       -44.0822           1.173422           1.173422           4.965294
 

  Adding cutoff potential to free-atom effective potential.
  Creating atomic-like basis functions for current effective potential.

  Species Pd                  :

  List of atomic basis orbitals and eigenvalues:
    n    l      energy [Ha]    energy [eV]    outer radius [A]
    1    0      -913.269104    -24851.3168       0.223280
    2    0      -130.434372     -3549.2998       0.615909
    3    0       -23.521804      -640.0609       1.414312
    4    0        -3.256918       -88.6253       3.581357
    5    0        -0.157260        -4.2793       5.427025
    2    1      -116.910756     -3181.3035       0.631154
    3    1       -19.103344      -519.8284       1.540671
    4    1        -1.998052       -54.3697       4.408641
    3    2       -12.098182      -329.2083       1.806051
    4    2        -0.243389        -6.6230       5.361084


  Species Se                  :

  List of atomic basis orbitals and eigenvalues:
    n    l      energy [Ha]    energy [eV]    outer radius [A]
    1    0      -466.337810    -12689.6975       0.309561
    2    0       -59.202598     -1610.9847       0.885812
    3    0        -7.847116      -213.5309       2.355489
    4    0        -0.634372       -17.2621       5.214131
    2    1       -52.061107     -1416.6548       0.907737
    3    1        -5.620941      -152.9536       2.694529
    4    1        -0.238469        -6.4891       5.408909
    3    2        -1.951949       -53.1152       4.083166

  Assembling full basis from fixed parts.
  | Species Pd :   atomic orbital   1 s accepted.
  | Species Pd :   atomic orbital   2 s accepted.
  | Species Pd :   atomic orbital   3 s accepted.
  | Species Pd :   atomic orbital   4 s accepted.
  | Species Pd :   atomic orbital   5 s accepted.
  | Species Pd :    hydro orbital   3 s accepted.
  | Species Pd :   atomic orbital   2 p accepted.
  | Species Pd :   atomic orbital   3 p accepted.
  | Species Pd :   atomic orbital   4 p accepted.
  | Species Pd :    ionic orbital   5 p accepted.
  | Species Pd :   atomic orbital   3 d accepted.
  | Species Pd :   atomic orbital   4 d accepted.
  | Species Pd :    hydro orbital   3 d accepted.
  | Species Pd :    hydro orbital   4 f accepted.
  | Species Pd :    hydro orbital   5 g accepted.
  | Species Se :   atomic orbital   1 s accepted.
  | Species Se :   atomic orbital   2 s accepted.
  | Species Se :   atomic orbital   3 s accepted.
  | Species Se :    ionic orbital   4 s accepted.
  | Species Se :   atomic orbital   4 s accepted.
  | Species Se :   atomic orbital   2 p accepted.
  | Species Se :   atomic orbital   3 p accepted.
  | Species Se :   atomic orbital   4 p accepted.
  | Species Se :    hydro orbital   2 p accepted.
  | Species Se :   atomic orbital   3 d accepted.
  | Species Se :    hydro orbital   3 d accepted.
  | Species Se :    hydro orbital   4 f accepted.
 
  Basis size parameters after reduction:
  | Total number of radial functions:       27
  | Total number of basis functions :      468
 
  Per-task memory consumption for arrays in subroutine allocate_ext:
  |           9.993344MB.
  Testing on-site integration grid accuracy.
  |  Species  Function  <phi|h_atom|phi> (log., in eV)  <phi|h_atom|phi> (rad., in eV)
           1        1             -24851.3167505682             -24851.3148165635
           1        2              -3549.2998457785              -3549.2998098031
           1        3               -640.0608571327               -640.0608534886
           1        4                -88.6252603131                -88.6252593316
           1        5                 -4.2849374515                 -4.2849400622
           1        6                  4.9432123540                  4.9432188418
           1        7              -3181.3035399559              -3181.3035364574
           1        8               -519.8284281886               -519.8284264063
           1        9                -54.3697495804                -54.3697489261
           1       10                  0.8628369484                  0.8628370487
           1       11               -329.2082917394               -329.2082912864
           1       12                 -6.6230267036                 -6.6230265076
           1       13                  5.4924295291                  5.4924115607
           1       14                 25.0740861942                 25.0740861175
           1       15                 38.8271273823                 38.8271278029
           2       16             -12689.6974611609             -12689.6967666984
           2       17              -1610.9846578580              -1610.9846472470
           2       18               -213.5308789869               -213.5308777267
           2       19                -17.0464428502                -17.0464426496
           2       20                  6.7356859379                  6.7356842047
           2       21              -1416.6548010133              -1416.6548002108
           2       22               -152.9535734377               -152.9535727493
           2       23                 -6.4896265677                 -6.4896303794
           2       24                  5.2703037283                  5.2701679583
           2       25                -53.1152220964                -53.1152219035
           2       26                  7.6186674138                  7.6186665630
           2       27                 23.1072799052                 23.1072803137

  Preparing densities etc. for the partition functions (integrals / Hartree potential).

  Preparations completed.
  max(cpu_time)          :      0.549 s.
  Wall clock time (cpu1) :      0.583 s.
------------------------------------------------------------

------------------------------------------------------------
          Begin self-consistency loop: Initialization.

          Date     :  20200420, Time     :  113500.679
------------------------------------------------------------

  Initializing index lists of integration centers etc. from given atomic structure:
  Mapping all atomic coordinates to central unit cell.

  Initializing the k-points
  Using symmetry for reducing the k-points
  | k-points reduced from:      180 to       92
  | Number of k-points                             :        92
  The eigenvectors in the calculations are COMPLEX.
  | K-points in task   0:         3
  | K-points in task   1:         4
  | K-points in task   2:         4
  | K-points in task   3:         4
  | K-points in task   4:         4
  | K-points in task   5:         4
  | K-points in task   6:         4
  | K-points in task   7:         4
  | K-points in task   8:         4
  | K-points in task   9:         4
  | K-points in task  10:         4
  | K-points in task  11:         4
  | K-points in task  12:         4
  | K-points in task  13:         4
  | K-points in task  14:         4
  | K-points in task  15:         4
  | K-points in task  16:         4
  | K-points in task  17:         4
  | K-points in task  18:         4
  | K-points in task  19:         4
  | K-points in task  20:         4
  | K-points in task  21:         3
  | K-points in task  22:         3
  | K-points in task  23:         3
  | Number of basis functions in the Hamiltonian integrals :      5570
  | Number of basis functions in a single unit cell        :       468
  | Number of centers in hartree potential         :      1310
  | Number of centers in hartree multipole         :       764
  | Number of centers in electron density summation:       591
  | Number of centers in basis integrals           :       639
  | Number of centers in integrals                 :       235
  | Number of centers in hamiltonian               :       595
  | Consuming        123 KiB for k_phase.
  | Number of super-cells (origin) [n_cells]                     :         567
  | Number of super-cells (after PM_index) [n_cells]             :          86
  | Number of super-cells in hamiltonian [n_cells_in_hamiltonian]:          86
  | Size of matrix packed + index [n_hamiltonian_matrix_size] :     1286286

  Initializing relaxation algorithms.
  | Estimated reciprocal-space cutoff momentum G_max:         2.42342074 bohr^-1 .
  | Reciprocal lattice points for long-range Hartree potential:     410
  Partitioning the integration grid into batches with parallel hashing+maxmin method.
  | Number of batches:     4186
  | Maximal batch size:     110
  | Minimal batch size:      49
  | Average batch size:      91.767
  | Standard deviation of batch sizes:      11.659

  Integration load balanced across    24 MPI tasks.
  Work distribution over tasks is as follows:
  Task     0 has      16041 integration points.
  Task     1 has      16012 integration points.
  Task     2 has      16022 integration points.
  Task     3 has      15970 integration points.
  Task     4 has      16015 integration points.
  Task     5 has      16018 integration points.
  Task     6 has      15997 integration points.
  Task     7 has      16017 integration points.
  Task     8 has      15995 integration points.
  Task     9 has      15968 integration points.
  Task    10 has      16000 integration points.
  Task    11 has      16039 integration points.
  Task    12 has      16042 integration points.
  Task    13 has      16011 integration points.
  Task    14 has      16008 integration points.
  Task    15 has      15986 integration points.
  Task    16 has      15984 integration points.
  Task    17 has      15969 integration points.
  Task    18 has      16010 integration points.
  Task    19 has      16001 integration points.
  Task    20 has      15996 integration points.
  Task    21 has      16020 integration points.
  Task    22 has      16015 integration points.
  Task    23 has      16000 integration points.
  Initializing partition tables, free-atom densities, potentials, etc. across the integration grid (initialize_grid_storage).
  | initialize_grid_storage: Actual outermost partition radius vs. multipole_radius_free
  | (-- VB: in principle, multipole_radius_free should be larger, hence this output)
  | Species        1: Confinement radius =              6.000000000000000 AA, multipole_radius_free =              6.058219618167466 AA.
  | Species        1: outer_partition_radius set to              6.058219618167466 AA .
  | Species        2: Confinement radius =              6.000000000000000 AA, multipole_radius_free =              6.037996416842453 AA.
  | Species        2: outer_partition_radius set to              6.037996416842453 AA .
  | The sparse table of interatomic distances needs       2886.98 kbyte instead of      3266.57 kbyte of memory.
  | Net number of integration points:   384136
  | of which are non-zero points    :   322283
  | Numerical average free-atom electrostatic potential    :    -16.98205533 eV
  Renormalizing the initial density to the exact electron count on the 3D integration grid.
  | Initial density: Formal number of electrons (from input files) :     456.0000000000
  | Integrated number of electrons on 3D grid     :     456.0000345141
  | Charge integration error                      :       0.0000345141
  | Normalization factor for density and gradient :       0.9999999243
  Renormalizing the free-atom superposition density to the exact electron count on the 3D integration grid.
  | Formal number of electrons (from input files) :     456.0000000000
  | Integrated number of electrons on 3D grid     :     456.0000345141
  | Charge integration error                      :       0.0000345141
  | Normalization factor for density and gradient :       0.9999999243
  Obtaining max. number of non-zero basis functions in each batch (get_n_compute_maxes).
  | Maximal number of non-zero basis functions:     1024 in task     0
  | Maximal number of non-zero basis functions:     1022 in task     1
  | Maximal number of non-zero basis functions:      992 in task     2
  | Maximal number of non-zero basis functions:     1025 in task     3
  | Maximal number of non-zero basis functions:     1037 in task     4
  | Maximal number of non-zero basis functions:     1009 in task     5
  | Maximal number of non-zero basis functions:     1013 in task     6
  | Maximal number of non-zero basis functions:     1032 in task     7
  | Maximal number of non-zero basis functions:     1000 in task     8
  | Maximal number of non-zero basis functions:     1022 in task     9
  | Maximal number of non-zero basis functions:     1015 in task    10
  | Maximal number of non-zero basis functions:     1008 in task    11
  | Maximal number of non-zero basis functions:     1029 in task    12
  | Maximal number of non-zero basis functions:     1001 in task    13
  | Maximal number of non-zero basis functions:     1028 in task    14
  | Maximal number of non-zero basis functions:     1014 in task    15
  | Maximal number of non-zero basis functions:     1015 in task    16
  | Maximal number of non-zero basis functions:     1037 in task    17
  | Maximal number of non-zero basis functions:     1013 in task    18
  | Maximal number of non-zero basis functions:     1025 in task    19
  | Maximal number of non-zero basis functions:     1044 in task    20
  | Maximal number of non-zero basis functions:     1022 in task    21
  | Maximal number of non-zero basis functions:     1012 in task    22
  | Maximal number of non-zero basis functions:     1019 in task    23
  Allocating        6.298 MB for KS_eigenvector_complex
  Integrating Hamiltonian matrix: batch-based integration.
  Time summed over all CPUs for integration: real work       63.412 s, elapsed       64.267 s
  Integrating overlap matrix.
  Time summed over all CPUs for integration: real work       45.824 s, elapsed       46.893 s
  Decreasing sparse matrix size:
  | Tolerance:  0.1000E-12
  Hamiltonian matrix
  | Array has  1113209 nonzero elements out of  1286286 elements
  | Sparsity factor is 0.135
  Overlap matrix
  | Array has  1028756 nonzero elements out of  1286286 elements
  | Sparsity factor is 0.200
  New size of hamiltonian matrix:     1113302

  Updating Kohn-Sham eigenvalues and eigenvectors using ELSI and the (modified) LAPACK eigensolver.
  Singularity check in k-point 24, task 0 (analysis for other k-points/tasks may follow below):
  Overlap matrix is not singular
  | Lowest and highest eigenvalues :  0.7085E-03,  0.7206E+01
  Finished singularity check of overlap matrix
  | Time :     0.084 s
  Starting LAPACK eigensolver
  Finished Cholesky decomposition
  | Time :     0.018 s
  Finished transformation to standard eigenproblem
  | Time :     0.021 s
  Finished solving standard eigenproblem
  | Time :     0.071 s
  Finished back-transformation of eigenvectors
  | Time :     0.008 s

  Obtaining occupation numbers and chemical potential using ELSI.
  | Chemical potential (Fermi level):    -4.61997484 eV
  Writing Kohn-Sham eigenvalues.
  K-point:       1 at    0.000000    0.000000    0.000000 (in units of recip. lattice)

  State    Occupation    Eigenvalue [Ha]    Eigenvalue [eV]
      1       2.00000        -913.279588       -24851.60201
      2       2.00000        -913.279578       -24851.60176
      3       2.00000        -913.279562       -24851.60132
      4       2.00000        -913.279449       -24851.59823
      5       2.00000        -466.350442       -12690.04120
      6       2.00000        -466.350359       -12690.03893
      7       2.00000        -466.350306       -12690.03750
      8       2.00000        -466.350306       -12690.03749
      9       2.00000        -466.350285       -12690.03692
     10       2.00000        -466.350273       -12690.03659
     11       2.00000        -466.350236       -12690.03558
     12       2.00000        -466.350202       -12690.03466
     13       2.00000        -130.445173        -3549.59375
     14       2.00000        -130.445163        -3549.59349
     15       2.00000        -130.445147        -3549.59304
     16       2.00000        -130.445032        -3549.58993
     17       2.00000        -116.921581        -3181.59810
     18       2.00000        -116.921572        -3181.59785
     19       2.00000        -116.921572        -3181.59784
     20       2.00000        -116.921562        -3181.59759
     21       2.00000        -116.921555        -3181.59739
     22       2.00000        -116.921546        -3181.59716
     23       2.00000        -116.921517        -3181.59635
     24       2.00000        -116.921507        -3181.59609
     25       2.00000        -116.921491        -3181.59565
     26       2.00000        -116.921441        -3181.59428
     27       2.00000        -116.921432        -3181.59404
     28       2.00000        -116.921377        -3181.59255
     29       2.00000         -59.215658        -1611.34004
     30       2.00000         -59.215573        -1611.33772
     31       2.00000         -59.215520        -1611.33629
     32       2.00000         -59.215520        -1611.33627
     33       2.00000         -59.215498        -1611.33568
     34       2.00000         -59.215486        -1611.33535
     35       2.00000         -59.215448        -1611.33433
     36       2.00000         -59.215414        -1611.33340
     37       2.00000         -52.074174        -1417.01037
     38       2.00000         -52.074150        -1417.00972
     39       2.00000         -52.074099        -1417.00834
     40       2.00000         -52.074091        -1417.00810
     41       2.00000         -52.074064        -1417.00737
     42       2.00000         -52.074037        -1417.00665
     43       2.00000         -52.074036        -1417.00661
     44       2.00000         -52.074015        -1417.00605
     45       2.00000         -52.074015        -1417.00604
     46       2.00000         -52.074013        -1417.00598
     47       2.00000         -52.074010        -1417.00590
     48       2.00000         -52.074003        -1417.00572
     49       2.00000         -52.073989        -1417.00533
     50       2.00000         -52.073976        -1417.00500
     51       2.00000         -52.073965        -1417.00468
     52       2.00000         -52.073962        -1417.00461
     53       2.00000         -52.073962        -1417.00461
     54       2.00000         -52.073941        -1417.00402
     55       2.00000         -52.073939        -1417.00399
     56       2.00000         -52.073931        -1417.00376
     57       2.00000         -52.073929        -1417.00370
     58       2.00000         -52.073905        -1417.00305
     59       2.00000         -52.073892        -1417.00269
     60       2.00000         -52.073858        -1417.00176
     61       2.00000         -23.533372         -640.37563
     62       2.00000         -23.533362         -640.37536
     63       2.00000         -23.533344         -640.37489
     64       2.00000         -23.533223         -640.37157
     65       2.00000         -19.115172         -520.15031
     66       2.00000         -19.115163         -520.15004
     67       2.00000         -19.115141         -520.14947
     68       2.00000         -19.115083         -520.14788
     69       2.00000         -19.115072         -520.14757
     70       2.00000         -19.115058         -520.14718
     71       2.00000         -19.115019         -520.14614
     72       2.00000         -19.114932         -520.14376
     73       2.00000         -19.114535         -520.13296
     74       2.00000         -19.114526         -520.13272
     75       2.00000         -19.114509         -520.13226
     76       2.00000         -19.114391         -520.12905
     77       2.00000         -12.109980         -329.52932
     78       2.00000         -12.109969         -329.52903
     79       2.00000         -12.109951         -329.52854
     80       2.00000         -12.109944         -329.52834
     81       2.00000         -12.109933         -329.52805
     82       2.00000         -12.109915         -329.52756
     83       2.00000         -12.109827         -329.52516
     84       2.00000         -12.109792         -329.52420
     85       2.00000         -12.109591         -329.51872
     86       2.00000         -12.109582         -329.51848
     87       2.00000         -12.109562         -329.51795
     88       2.00000         -12.109533         -329.51717
     89       2.00000         -12.109523         -329.51689
     90       2.00000         -12.109508         -329.51649
     91       2.00000         -12.109448         -329.51484
     92       2.00000         -12.109443         -329.51472
     93       2.00000         -12.109439         -329.51459
     94       2.00000         -12.109422         -329.51414
     95       2.00000         -12.109387         -329.51319
     96       2.00000         -12.109303         -329.51089
     97       2.00000          -7.861984         -213.93548
     98       2.00000          -7.861884         -213.93274
     99       2.00000          -7.861831         -213.93130
    100       2.00000          -7.861824         -213.93110
    101       2.00000          -7.861800         -213.93047
    102       2.00000          -7.861786         -213.93009
    103       2.00000          -7.861745         -213.92897
    104       2.00000          -7.861707         -213.92793
    105       2.00000          -5.636400         -153.37423
    106       2.00000          -5.636313         -153.37188
    107       2.00000          -5.636252         -153.37021
    108       2.00000          -5.636237         -153.36980
    109       2.00000          -5.636224         -153.36946
    110       2.00000          -5.636207         -153.36900
    111       2.00000          -5.636156         -153.36761
    112       2.00000          -5.636146         -153.36735
    113       2.00000          -5.636120         -153.36663
    114       2.00000          -5.636028         -153.36412
    115       2.00000          -5.635978         -153.36275
    116       2.00000          -5.635954         -153.36211
    117       2.00000          -5.635934         -153.36157
    118       2.00000          -5.635917         -153.36111
    119       2.00000          -5.635855         -153.35942
    120       2.00000          -5.635825         -153.35861
    121       2.00000          -5.635460         -153.34867
    122       2.00000          -5.635364         -153.34605
    123       2.00000          -5.635313         -153.34468
    124       2.00000          -5.635313         -153.34466
    125       2.00000          -5.635287         -153.34396
    126       2.00000          -5.635276         -153.34366
    127       2.00000          -5.635241         -153.34270
    128       2.00000          -5.635202         -153.34165
    129       2.00000          -3.274069          -89.09195
    130       2.00000          -3.274055          -89.09157
    131       2.00000          -3.274029          -89.09087
    132       2.00000          -3.273851          -89.08603
    133       2.00000          -2.020452          -54.97929
    134       2.00000          -2.020442          -54.97901
    135       2.00000          -2.020362          -54.97684
    136       2.00000          -2.020156          -54.97124
    137       2.00000          -2.019424          -54.95132
    138       2.00000          -2.019413          -54.95102
    139       2.00000          -2.019371          -54.94987
    140       2.00000          -2.019145          -54.94374
    141       2.00000          -2.013063          -54.77822
    142       2.00000          -2.013062          -54.77819
    143       2.00000          -2.013039          -54.77758
    144       2.00000          -2.012882          -54.77330
    145       2.00000          -1.969411          -53.59040
    146       2.00000          -1.969262          -53.58634
    147       2.00000          -1.969183          -53.58420
    148       2.00000          -1.969156          -53.58346
    149       2.00000          -1.968335          -53.56111
    150       2.00000          -1.968232          -53.55833
    151       2.00000          -1.968154          -53.55619
    152       2.00000          -1.968134          -53.55564
    153       2.00000          -1.967871          -53.54848
    154       2.00000          -1.967819          -53.54709
    155       2.00000          -1.967749          -53.54517
    156       2.00000          -1.967741          -53.54495
    157       2.00000          -1.967726          -53.54454
    158       2.00000          -1.967674          -53.54312
    159       2.00000          -1.967594          -53.54094
    160       2.00000          -1.967583          -53.54065
    161       2.00000          -1.967447          -53.53695
    162       2.00000          -1.967408          -53.53588
    163       2.00000          -1.967379          -53.53512
    164       2.00000          -1.967331          -53.53381
    165       2.00000          -1.967323          -53.53358
    166       2.00000          -1.967317          -53.53343
    167       2.00000          -1.967291          -53.53272
    168       2.00000          -1.967267          -53.53205
    169       2.00000          -1.967264          -53.53199
    170       2.00000          -1.967257          -53.53179
    171       2.00000          -1.967242          -53.53137
    172       2.00000          -1.967230          -53.53106
    173       2.00000          -1.967191          -53.52998
    174       2.00000          -1.967182          -53.52974
    175       2.00000          -1.967169          -53.52938
    176       2.00000          -1.967140          -53.52861
    177       2.00000          -1.966763          -53.51834
    178       2.00000          -1.966697          -53.51655
    179       2.00000          -1.966633          -53.51480
    180       2.00000          -1.966620          -53.51446
    181       2.00000          -1.966408          -53.50869
    182       2.00000          -1.966352          -53.50716
    183       2.00000          -1.966284          -53.50530
    184       2.00000          -1.966278          -53.50516
    185       2.00000          -0.759444          -20.66552
    186       2.00000          -0.741388          -20.17421
    187       2.00000          -0.720576          -19.60787
    188       2.00000          -0.718758          -19.55839
    189       2.00000          -0.652654          -17.75961
    190       2.00000          -0.640620          -17.43215
    191       2.00000          -0.639042          -17.38923
    192       2.00000          -0.627707          -17.08077
    193       2.00000          -0.418734          -11.39433
    194       2.00000          -0.410855          -11.17993
    195       2.00000          -0.388900          -10.58250
    196       2.00000          -0.376658          -10.24939
    197       2.00000          -0.370499          -10.08179
    198       2.00000          -0.368824          -10.03621
    199       2.00000          -0.367319           -9.99526
    200       2.00000          -0.366439           -9.97131
    201       2.00000          -0.365244           -9.93879
    202       2.00000          -0.363539           -9.89239
    203       2.00000          -0.360882           -9.82009
    204       2.00000          -0.351899           -9.57566
    205       2.00000          -0.341111           -9.28209
    206       2.00000          -0.330429           -8.99142
    207       2.00000          -0.323549           -8.80421
    208       2.00000          -0.315977           -8.59817
    209       2.00000          -0.315241           -8.57815
    210       2.00000          -0.306580           -8.34246
    211       2.00000          -0.288678           -7.85534
    212       2.00000          -0.286342           -7.79176
    213       2.00000          -0.285212           -7.76102
    214       2.00000          -0.280224           -7.62528
    215       2.00000          -0.278974           -7.59126
    216       2.00000          -0.277275           -7.54504
    217       2.00000          -0.276413           -7.52157
    218       2.00000          -0.275789           -7.50461
    219       2.00000          -0.273657           -7.44658
    220       2.00000          -0.270458           -7.35954
    221       2.00000          -0.265051           -7.21239
    222       2.00000          -0.263049           -7.15791
    223       2.00000          -0.262875           -7.15318
    224       2.00000          -0.257219           -6.99930
    225       2.00000          -0.225031           -6.12342
    226       2.00000          -0.215886           -5.87457
    227       2.00000          -0.213533           -5.81052
    228       0.00000          -0.167085           -4.54663
    229       0.00000          -0.151668           -4.12711
    230       0.00000          -0.135508           -3.68735
    231       0.00000          -0.130111           -3.54051
    232       0.00000          -0.129383           -3.52069
    233       0.00000          -0.126082           -3.43087
    234       0.00000          -0.115967           -3.15563
    235       0.00000          -0.114691           -3.12090
    236       0.00000          -0.081810           -2.22616
    237       0.00000          -0.037632           -1.02403
    238       0.00000          -0.031452           -0.85585
    239       0.00000          -0.005337           -0.14523
    240       0.00000           0.018715            0.50927
    241       0.00000           0.024288            0.66091
    242       0.00000           0.025091            0.68277
    243       0.00000           0.055463            1.50921
    244       0.00000           0.089201            2.42727
    245       0.00000           0.104386            2.84048
    246       0.00000           0.111023            3.02109
    247       0.00000           0.119638            3.25551
    248       0.00000           0.121625            3.30957
    249       0.00000           0.125996            3.42853
    250       0.00000           0.126469            3.44139
    251       0.00000           0.136016            3.70119
    252       0.00000           0.150934            4.10713
    253       0.00000           0.162207            4.41388
    254       0.00000           0.173053            4.70901
    255       0.00000           0.176963            4.81541
    256       0.00000           0.189635            5.16022
    257       0.00000           0.191004            5.19748
    258       0.00000           0.196481            5.34652
    259       0.00000           0.219273            5.96671
    260       0.00000           0.232241            6.31960
    261       0.00000           0.248068            6.75029
    262       0.00000           0.257375            7.00352
    263       0.00000           0.266673            7.25654
    264       0.00000           0.280730            7.63904
    265       0.00000           0.281426            7.65800
[...]
  Starting LAPACK eigensolver
  Finished Cholesky decomposition
  | Time :     0.011 s
  Finished transformation to standard eigenproblem
  | Time :     0.020 s
  Finished solving standard eigenproblem
  | Time :     0.070 s
  Finished back-transformation of eigenvectors
  | Time :     0.008 s

  Obtaining occupation numbers and chemical potential using ELSI.
  | Chemical potential (Fermi level):    -4.81190251 eV
  What follows are estimated values for band gap, HOMO, LUMO, etc.
  | They are estimated on a discrete k-point grid and not necessarily exact.
  | For converged numbers, create a DOS and/or band structure plot on a denser k-grid.

  Highest occupied state (VBM) at     -4.88590395 eV (relative to internal zero)
  | Occupation number:      1.96365771
  | K-point:      39 at    0.333333    0.000000    0.000000 (in units of recip. lattice)

  Lowest unoccupied state (CBM) at    -4.80274830 eV (relative to internal zero)
  | Occupation number:      0.79569691
  | K-point:      47 at    0.333333    0.333333    0.000000 (in units of recip. lattice)

  ESTIMATED overall HOMO-LUMO gap:      0.08315565 eV between HOMO at k-point 39 and LUMO at k-point 47
  | This appears to be an indirect band gap.
  | Smallest direct gap :      0.44975943 eV for k_point 54 at    0.333333    0.333333    0.000000 (in units of recip. lattice)
  However, this system has fractional occupation numbers. Since we use a finite k-point grid,
  this material is metallic within the approximate finite broadening function (occupation_type)
  applied to determine the occupation numbers.

  Total energy components:
  | Sum of eigenvalues            :      -23864.34992651 Ha     -649382.00169282 eV
  | XC energy correction          :       -1284.32830058 Ha      -34948.35121125 eV
  | XC potential correction       :        1672.90348521 Ha       45522.01996753 eV
  | Free-atom electrostatic energy:      -16511.28543154 Ha     -449294.93646697 eV
  | Hartree energy correction     :           7.15543447 Ha         194.70927855 eV
  | vdW energy correction         :           0.00000000 Ha           0.00000000 eV
  | Entropy correction            :          -0.00004563 Ha          -0.00124168 eV
  | ---------------------------
  | Total energy                  :      -39979.90473895 Ha    -1087908.56012496 eV
  | Total energy, T -> 0          :      -39979.90478458 Ha    -1087908.56136664 eV  <-- do not rely on this value for anything but (periodic) metals
  | Electronic free energy        :      -39979.90483021 Ha    -1087908.56260831 eV

  Derived energy quantities:
  | Kinetic energy                :       41145.65441978 Ha     1119630.22292078 eV
  | Electrostatic energy          :      -79841.23085815 Ha    -2172590.43183449 eV
  | Energy correction for multipole
  | error in Hartree potential    :          -0.00527127 Ha          -0.14343842 eV
  | Sum of eigenvalues per atom                           :      -54115.16680773 eV
  | Total energy (T->0) per atom                          :      -90659.04678055 eV  <-- do not rely on this value for anything but (periodic) metals
  | Electronic free energy per atom                       :      -90659.04688403 eV

  Self-consistency convergence accuracy:
  | Change of charge density      :  0.2078E-03
  | Change of sum of eigenvalues  : -0.1337E+00 eV
  | Change of total energy        :  0.1220E-05 eV

  End self-consistency iteration #    14       :  max(cpu_time)    wall_clock(cpu1)
  | Time for this iteration                    :       10.965 s          10.967 s
  | Charge density update                      :        5.186 s           5.186 s
  | Density mixing & preconditioning           :        0.730 s           0.731 s
  | Hartree multipole update                   :        0.004 s           0.004 s
  | Hartree multipole summation                :        1.731 s           1.731 s
  | Integration                                :        2.719 s           2.720 s
  | Solution of K.-S. eqns.                    :        0.593 s           0.593 s
  | Total energy evaluation                    :        0.001 s           0.002 s

  Partial memory accounting:
  | Current value for overall tracked memory usage:
  |   Minimum:       27.619 MB (on task  0)
  |   Maximum:       29.719 MB (on task  1)
  |   Average:       29.369 MB
  | Peak value for overall tracked memory usage:
  |   Minimum:       41.302 MB (on task 22 after allocating wave)
  |   Maximum:       43.985 MB (on task 20 after allocating wave)
  |   Average:       43.183 MB
  | Largest tracked array allocation so far:
  |   Minimum:        9.814 MB (overlap_matrix on task  0)
  |   Maximum:        9.814 MB (overlap_matrix on task  0)
  |   Average:        9.814 MB
  Note:  These values currently only include a subset of arrays which are explicitly tracked.
  The "true" memory usage will be greater.
------------------------------------------------------------

------------------------------------------------------------
          Begin self-consistency iteration #   15

  Date     :  20200420, Time     :  113741.429
------------------------------------------------------------
  Evaluating new KS density using the density matrix
  Evaluating density matrix
  Time summed over all CPUs for getting density from density matrix: real work      119.966 s, elapsed      121.717 s
  Integration grid: deviation in total charge (<rho> - N_e) =  -1.122089E-10
  Pulay mixing of updated and previous charge densities.
  Renormalizing the density to the exact electron count on the 3D integration grid.
  | Formal number of electrons (from input files) :     456.0000000000
  | Integrated number of electrons on 3D grid     :     456.0000018982
  | Charge integration error                      :       0.0000018982
  | Normalization factor for density and gradient :       0.9999999958

  Evaluating partitioned Hartree potential by multipole expansion.
  | Original multipole sum: apparent total charge =  -0.667337E-12
  | Sum of charges compensated after spline to logarithmic grids =   0.877394E-07
  | Analytical far-field extrapolation by fixed multipoles:
  | Hartree multipole sum: apparent total charge =  -0.667330E-12
  Summing up the Hartree potential.
  Time summed over all CPUs for potential: real work       40.133 s, elapsed       41.982 s
  | RMS charge density error from multipole expansion :   0.760632E-02
  | Average real-space part of the electrostatic potential :     -0.00950519 eV

  Integrating Hamiltonian matrix: batch-based integration.
  Time summed over all CPUs for integration: real work       62.463 s, elapsed       63.535 s

  Updating Kohn-Sham eigenvalues and eigenvectors using ELSI and the (modified) LAPACK eigensolver.
  Starting LAPACK eigensolver
  Finished Cholesky decomposition
  | Time :     0.011 s
  Finished transformation to standard eigenproblem
  | Time :     0.020 s
  Finished solving standard eigenproblem
  | Time :     0.070 s
  Finished back-transformation of eigenvectors
  | Time :     0.008 s

  Obtaining occupation numbers and chemical potential using ELSI.
  | Chemical potential (Fermi level):    -4.81190394 eV
  What follows are estimated values for band gap, HOMO, LUMO, etc.
  | They are estimated on a discrete k-point grid and not necessarily exact.
  | For converged numbers, create a DOS and/or band structure plot on a denser k-grid.

  Highest occupied state (VBM) at     -4.88589767 eV (relative to internal zero)
  | Occupation number:      1.96363823
  | K-point:      39 at    0.333333    0.000000    0.000000 (in units of recip. lattice)

  Lowest unoccupied state (CBM) at    -4.80274830 eV (relative to internal zero)
  | Occupation number:      0.79566565
  | K-point:      47 at    0.333333    0.333333    0.000000 (in units of recip. lattice)

  ESTIMATED overall HOMO-LUMO gap:      0.08314937 eV between HOMO at k-point 39 and LUMO at k-point 47
  | This appears to be an indirect band gap.
  | Smallest direct gap :      0.44975702 eV for k_point 54 at    0.333333    0.333333    0.000000 (in units of recip. lattice)
  However, this system has fractional occupation numbers. Since we use a finite k-point grid,
  this material is metallic within the approximate finite broadening function (occupation_type)
  applied to determine the occupation numbers.

  Total energy components:
  | Sum of eigenvalues            :      -23864.35018827 Ha     -649382.00881578 eV
  | XC energy correction          :       -1284.32828560 Ha      -34948.35080381 eV
  | XC potential correction       :        1672.90346629 Ha       45522.01945269 eV
  | Free-atom electrostatic energy:      -16511.28543154 Ha     -449294.93646697 eV
  | Hartree energy correction     :           7.15570017 Ha         194.71650881 eV
  | vdW energy correction         :           0.00000000 Ha           0.00000000 eV
  | Entropy correction            :          -0.00004563 Ha          -0.00124169 eV
  | ---------------------------
  | Total energy                  :      -39979.90473895 Ha    -1087908.56012506 eV
  | Total energy, T -> 0          :      -39979.90478459 Ha    -1087908.56136675 eV  <-- do not rely on this value for anything but (periodic) metals
  | Electronic free energy        :      -39979.90483022 Ha    -1087908.56260844 eV

  Derived energy quantities:
  | Kinetic energy                :       41145.65405999 Ha     1119630.21313031 eV
  | Electrostatic energy          :      -79841.23051334 Ha    -2172590.42245156 eV
  | Energy correction for multipole
  | error in Hartree potential    :          -0.00527099 Ha          -0.14343093 eV
  | Sum of eigenvalues per atom                           :      -54115.16740131 eV
  | Total energy (T->0) per atom                          :      -90659.04678056 eV  <-- do not rely on this value for anything but (periodic) metals
  | Electronic free energy per atom                       :      -90659.04688404 eV

  Self-consistency convergence accuracy:
  | Change of charge density      :  0.6616E-04
  | Change of sum of eigenvalues  : -0.7123E-02 eV
  | Change of total energy        : -0.9563E-07 eV

  End self-consistency iteration #    15       :  max(cpu_time)    wall_clock(cpu1)
  | Time for this iteration                    :       10.953 s          10.954 s
  | Charge density update                      :        5.185 s           5.185 s
  | Density mixing & preconditioning           :        0.730 s           0.730 s
  | Hartree multipole update                   :        0.004 s           0.005 s
  | Hartree multipole summation                :        1.768 s           1.768 s
  | Integration                                :        2.674 s           2.675 s
  | Solution of K.-S. eqns.                    :        0.589 s           0.589 s
  | Total energy evaluation                    :        0.001 s           0.001 s

  Partial memory accounting:
  | Current value for overall tracked memory usage:
  |   Minimum:       27.619 MB (on task  0)
  |   Maximum:       29.719 MB (on task  1)
  |   Average:       29.369 MB
  | Peak value for overall tracked memory usage:
  |   Minimum:       41.302 MB (on task 22 after allocating wave)
  |   Maximum:       43.985 MB (on task 20 after allocating wave)
  |   Average:       43.183 MB
  | Largest tracked array allocation so far:
  |   Minimum:        9.814 MB (overlap_matrix on task  0)
  |   Maximum:        9.814 MB (overlap_matrix on task  0)
  |   Average:        9.814 MB
  Note:  These values currently only include a subset of arrays which are explicitly tracked.
  The "true" memory usage will be greater.
------------------------------------------------------------

------------------------------------------------------------
          Begin self-consistency iteration #   16

  Date     :  20200420, Time     :  113752.383
------------------------------------------------------------
  Evaluating new KS density using the density matrix
  Evaluating density matrix
  Time summed over all CPUs for getting density from density matrix: real work      119.976 s, elapsed      121.723 s
  Integration grid: deviation in total charge (<rho> - N_e) =  -1.119815E-10
  Pulay mixing of updated and previous charge densities.
  Renormalizing the density to the exact electron count on the 3D integration grid.
  | Formal number of electrons (from input files) :     456.0000000000
  | Integrated number of electrons on 3D grid     :     456.0000029476
  | Charge integration error                      :       0.0000029476
  | Normalization factor for density and gradient :       0.9999999935

  Evaluating partitioned Hartree potential by multipole expansion.
  | Original multipole sum: apparent total charge =   0.307561E-12
  | Sum of charges compensated after spline to logarithmic grids =   0.876556E-07
  | Analytical far-field extrapolation by fixed multipoles:
  | Hartree multipole sum: apparent total charge =   0.307232E-12
  Summing up the Hartree potential.
  Time summed over all CPUs for potential: real work       40.132 s, elapsed       41.956 s
  | RMS charge density error from multipole expansion :   0.760582E-02
  | Average real-space part of the electrostatic potential :     -0.00949928 eV

  Integrating Hamiltonian matrix: batch-based integration.
  Time summed over all CPUs for integration: real work       62.495 s, elapsed       63.553 s

  Updating Kohn-Sham eigenvalues and eigenvectors using ELSI and the (modified) LAPACK eigensolver.
  Starting LAPACK eigensolver
  Finished Cholesky decomposition
  | Time :     0.011 s
  Finished transformation to standard eigenproblem
  | Time :     0.020 s
  Finished solving standard eigenproblem
  | Time :     0.070 s
  Finished back-transformation of eigenvectors
  | Time :     0.008 s

  Obtaining occupation numbers and chemical potential using ELSI.
  | Chemical potential (Fermi level):    -4.81190755 eV
  What follows are estimated values for band gap, HOMO, LUMO, etc.
  | They are estimated on a discrete k-point grid and not necessarily exact.
  | For converged numbers, create a DOS and/or band structure plot on a denser k-grid.

  Highest occupied state (VBM) at     -4.88589247 eV (relative to internal zero)
  | Occupation number:      1.96361599
  | K-point:      39 at    0.333333    0.000000    0.000000 (in units of recip. lattice)

  Lowest unoccupied state (CBM) at    -4.80275201 eV (relative to internal zero)
  | Occupation number:      0.79566785
  | K-point:      47 at    0.333333    0.333333    0.000000 (in units of recip. lattice)

  ESTIMATED overall HOMO-LUMO gap:      0.08314046 eV between HOMO at k-point 39 and LUMO at k-point 47
  | This appears to be an indirect band gap.
  | Smallest direct gap :      0.44974821 eV for k_point 54 at    0.333333    0.333333    0.000000 (in units of recip. lattice)
  However, this system has fractional occupation numbers. Since we use a finite k-point grid,
  this material is metallic within the approximate finite broadening function (occupation_type)
  applied to determine the occupation numbers.

  Total energy components:
  | Sum of eigenvalues            :      -23864.35053828 Ha     -649382.01833990 eV
  | XC energy correction          :       -1284.32826488 Ha      -34948.35023979 eV
  | XC potential correction       :        1672.90344019 Ha       45522.01874232 eV
  | Free-atom electrostatic energy:      -16511.28543154 Ha     -449294.93646697 eV
  | Hartree energy correction     :           7.15605555 Ha         194.72617914 eV
  | vdW energy correction         :           0.00000000 Ha           0.00000000 eV
  | Entropy correction            :          -0.00004563 Ha          -0.00124170 eV
  | ---------------------------
  | Total energy                  :      -39979.90473896 Ha    -1087908.56012520 eV
  | Total energy, T -> 0          :      -39979.90478459 Ha    -1087908.56136690 eV  <-- do not rely on this value for anything but (periodic) metals
  | Electronic free energy        :      -39979.90483022 Ha    -1087908.56260861 eV

  Derived energy quantities:
  | Kinetic energy                :       41145.65350484 Ha     1119630.19802402 eV
  | Electrostatic energy          :      -79841.22997892 Ha    -2172590.40790943 eV
  | Energy correction for multipole
  | error in Hartree potential    :          -0.00527055 Ha          -0.14341890 eV
  | Sum of eigenvalues per atom                           :      -54115.16819499 eV
  | Total energy (T->0) per atom                          :      -90659.04678058 eV  <-- do not rely on this value for anything but (periodic) metals
  | Electronic free energy per atom                       :      -90659.04688405 eV

  Self-consistency convergence accuracy:
  | Change of charge density      :  0.6155E-04
  | Change of sum of eigenvalues  : -0.9524E-02 eV
  | Change of total energy        : -0.1441E-06 eV

  End self-consistency iteration #    16       :  max(cpu_time)    wall_clock(cpu1)
  | Time for this iteration                    :       10.955 s          10.956 s
  | Charge density update                      :        5.185 s           5.186 s
  | Density mixing & preconditioning           :        0.731 s           0.730 s
  | Hartree multipole update                   :        0.004 s           0.005 s
  | Hartree multipole summation                :        1.767 s           1.767 s
  | Integration                                :        2.675 s           2.676 s
  | Solution of K.-S. eqns.                    :        0.590 s           0.590 s
  | Total energy evaluation                    :        0.001 s           0.001 s

  Partial memory accounting:
  | Current value for overall tracked memory usage:
  |   Minimum:       27.619 MB (on task  0)
  |   Maximum:       29.719 MB (on task  1)
  |   Average:       29.369 MB
  | Peak value for overall tracked memory usage:
  |   Minimum:       41.302 MB (on task 22 after allocating wave)
  |   Maximum:       43.985 MB (on task 20 after allocating wave)
  |   Average:       43.183 MB
  | Largest tracked array allocation so far:
  |   Minimum:        9.814 MB (overlap_matrix on task  0)
  |   Maximum:        9.814 MB (overlap_matrix on task  0)
  |   Average:        9.814 MB
  Note:  These values currently only include a subset of arrays which are explicitly tracked.
  The "true" memory usage will be greater.
------------------------------------------------------------

------------------------------------------------------------
          Begin self-consistency iteration #   17

  Date     :  20200420, Time     :  113803.340
------------------------------------------------------------
  Evaluating new KS density using the density matrix
  Evaluating density matrix
  Time summed over all CPUs for getting density from density matrix: real work      119.980 s, elapsed      121.735 s
  Integration grid: deviation in total charge (<rho> - N_e) =  -1.120952E-10
  Pulay mixing of updated and previous charge densities.
  Renormalizing the density to the exact electron count on the 3D integration grid.
  | Formal number of electrons (from input files) :     456.0000000000
  | Integrated number of electrons on 3D grid     :     456.0000050754
  | Charge integration error                      :       0.0000050754
  | Normalization factor for density and gradient :       0.9999999889

  Evaluating partitioned Hartree potential by multipole expansion.
  | Original multipole sum: apparent total charge =  -0.321852E-12
  | Sum of charges compensated after spline to logarithmic grids =   0.877555E-07
  | Analytical far-field extrapolation by fixed multipoles:
  | Hartree multipole sum: apparent total charge =  -0.321652E-12
  Summing up the Hartree potential.
  Time summed over all CPUs for potential: real work       40.059 s, elapsed       41.094 s
  | RMS charge density error from multipole expansion :   0.760718E-02
  | Average real-space part of the electrostatic potential :     -0.00948481 eV

  Integrating Hamiltonian matrix: batch-based integration.
