------------------------------------------------------------
          Invoking FHI-aims ...

          When using FHI-aims, please cite the following reference:

          Volker Blum, Ralf Gehrke, Felix Hanke, Paula Havu,
          Ville Havu, Xinguo Ren, Karsten Reuter, and Matthias Scheffler,
          'Ab Initio Molecular Simulations with Numeric Atom-Centered Orbitals',
          Computer Physics Communications 180, 2175-2196 (2009)

          For any questions about FHI-aims, please visit the aimsclub website
          with its forums and wiki. Contributions to both the forums and the
          wiki are warmly encouraged - they are for you, and everyone is welcome there.

------------------------------------------------------------



  Date     :  20200420, Time     :  204038.787
  Time zero on CPU 1             :   0.133507000000000E+00  s.
  Internal wall clock time zero  :           356647238.787  s.

  FHI-aims created a unique identifier for this run for later identification
  aims_uuid : 807A9D90-49E5-4339-AAD4-20D8B9621796

  Build configuration of the current instance of FHI-aims
  -------------------------------------------------------
  FHI-aims version      : 200112
  Commit number         : 23daeca3f
  CMake host system     : Linux-3.10.0-693.21.1.el7.x86_64
  CMake version         : 3.13.3
  Fortran compiler      : /sw/installed/impi/2018.4.274-iccifort-2019.1.144-GCC-8.2.0-2.31.1/bin64/mpiifort (Intel) version 19.0.0.20181018
  Fortran compiler flags: -O3 -ip -fp-model precise
  C compiler            : /sw/installed/impi/2018.4.274-iccifort-2019.1.144-GCC-8.2.0-2.31.1/bin64/mpiicc (Intel) version 19.0.0.20181018
  C compiler flags      : -O3 -ip -fp-model precise
  Architecture          :
  Using MPI
  Using Scalapack
  Using C files
  Using LibXC
  Using SPGlib
  Using i-PI
  Using RLSY
  Linking against: /sw/installed/imkl/2019.1.144-iimpi-2019a/mkl/lib/intel64/libmkl_intel_lp64.so
                   /sw/installed/imkl/2019.1.144-iimpi-2019a/mkl/lib/intel64/libmkl_sequential.so
                   /sw/installed/imkl/2019.1.144-iimpi-2019a/mkl/lib/intel64/libmkl_core.so
                   /sw/installed/imkl/2019.1.144-iimpi-2019a/mkl/lib/intel64/libmkl_blacs_intelmpi_lp64.so
                   /sw/installed/imkl/2019.1.144-iimpi-2019a/mkl/lib/intel64/libmkl_scalapack_lp64.so

  Using       24 parallel tasks.
  Task        0 on host taurusi6490.taurus.hrsk.tu-dresden.de reporting.
  Task        1 on host taurusi6490.taurus.hrsk.tu-dresden.de reporting.
  Task        2 on host taurusi6490.taurus.hrsk.tu-dresden.de reporting.
  Task        3 on host taurusi6490.taurus.hrsk.tu-dresden.de reporting.
  Task        4 on host taurusi6490.taurus.hrsk.tu-dresden.de reporting.
  Task        5 on host taurusi6490.taurus.hrsk.tu-dresden.de reporting.
  Task        6 on host taurusi6490.taurus.hrsk.tu-dresden.de reporting.
  Task        7 on host taurusi6490.taurus.hrsk.tu-dresden.de reporting.
  Task        8 on host taurusi6490.taurus.hrsk.tu-dresden.de reporting.
  Task        9 on host taurusi6490.taurus.hrsk.tu-dresden.de reporting.
  Task       10 on host taurusi6490.taurus.hrsk.tu-dresden.de reporting.
  Task       11 on host taurusi6490.taurus.hrsk.tu-dresden.de reporting.
  Task       12 on host taurusi6490.taurus.hrsk.tu-dresden.de reporting.
  Task       13 on host taurusi6490.taurus.hrsk.tu-dresden.de reporting.
  Task       14 on host taurusi6490.taurus.hrsk.tu-dresden.de reporting.
  Task       15 on host taurusi6490.taurus.hrsk.tu-dresden.de reporting.
  Task       16 on host taurusi6490.taurus.hrsk.tu-dresden.de reporting.
  Task       17 on host taurusi6490.taurus.hrsk.tu-dresden.de reporting.
  Task       18 on host taurusi6490.taurus.hrsk.tu-dresden.de reporting.
  Task       19 on host taurusi6490.taurus.hrsk.tu-dresden.de reporting.
  Task       20 on host taurusi6490.taurus.hrsk.tu-dresden.de reporting.
  Task       21 on host taurusi6490.taurus.hrsk.tu-dresden.de reporting.
  Task       22 on host taurusi6490.taurus.hrsk.tu-dresden.de reporting.
  Task       23 on host taurusi6490.taurus.hrsk.tu-dresden.de reporting.

  Performing system and environment tests:
  | Environment variable OMP_NUM_THREADS correctly set to 1.
  | Maximum stacksize for task 0: unlimited
  | Maximum stacksize for task 1: unlimited
  | Maximum stacksize for task 2: unlimited
  | Maximum stacksize for task 3: unlimited
  | Maximum stacksize for task 4: unlimited
  | Maximum stacksize for task 5: unlimited
  | Maximum stacksize for task 6: unlimited
  | Maximum stacksize for task 7: unlimited
  | Maximum stacksize for task 8: unlimited
  | Maximum stacksize for task 9: unlimited
  | Maximum stacksize for task 10: unlimited
  | Maximum stacksize for task 11: unlimited
  | Maximum stacksize for task 12: unlimited
  | Maximum stacksize for task 13: unlimited
  | Maximum stacksize for task 14: unlimited
  | Maximum stacksize for task 15: unlimited
  | Maximum stacksize for task 16: unlimited
  | Maximum stacksize for task 17: unlimited
  | Maximum stacksize for task 18: unlimited
  | Maximum stacksize for task 19: unlimited
  | Maximum stacksize for task 20: unlimited
  | Maximum stacksize for task 21: unlimited
  | Maximum stacksize for task 22: unlimited
  | Maximum stacksize for task 23: unlimited
  | Current stacksize for task 0: unlimited
  | Current stacksize for task 1: unlimited
  | Current stacksize for task 2: unlimited
  | Current stacksize for task 3: unlimited
  | Current stacksize for task 4: unlimited
  | Current stacksize for task 5: unlimited
  | Current stacksize for task 6: unlimited
  | Current stacksize for task 7: unlimited
  | Current stacksize for task 8: unlimited
  | Current stacksize for task 9: unlimited
  | Current stacksize for task 10: unlimited
  | Current stacksize for task 11: unlimited
  | Current stacksize for task 12: unlimited
  | Current stacksize for task 13: unlimited
  | Current stacksize for task 14: unlimited
  | Current stacksize for task 15: unlimited
  | Current stacksize for task 16: unlimited
  | Current stacksize for task 17: unlimited
  | Current stacksize for task 18: unlimited
  | Current stacksize for task 19: unlimited
  | Current stacksize for task 20: unlimited
  | Current stacksize for task 21: unlimited
  | Current stacksize for task 22: unlimited
  | Current stacksize for task 23: unlimited
  | Checking for scalapack...
  | Testing pdtran()...
  | All pdtran() tests passed.

  Obtaining array dimensions for all initial allocations:
  
  -----------------------------------------------------------------------
  Parsing control.in (first pass over file, find array dimensions only).
  The contents of control.in will be repeated verbatim below
  unless switched off by setting 'verbatim_writeout .false.' .
  in the first line of control.in .
  -----------------------------------------------------------------------
  
  #===============================================================================
  # FHI-aims file: ./control.in
  # Created using the Atomic Simulation Environment (ASE)
  # Thu Apr  2 11:27:09 2020
  #===============================================================================
  xc                                 pbe
  # include_spin_orbit
  # vdw_correction_hirshfeld
  many_body_dispersion
  spin                               none
  k_grid 	 	 6 6 5
  relativistic                       atomic_zora scalar
  energy_tolerance 1e-2
  harmonic_length_scale  0.015
  ### SCF settings
  adjust_scf 	 always 	 3
  # frozen_core_scf 	 .true.
  # charge_mix_param  0.05
  # occupation_type 	 gaussian 	 0.01
  # sc_accuracy_eev   1E-3 	 	 # sum of eigenvalues convergence
  # sc_accuracy_etot  1E-6 	 	 # total energy convergence
  # sc_accuracy_rho   1E-3 	 	 # electron density convergence
  # elsi_restart 	 read_and_write 	 1000
  ### geometry optimisation section
  relax_geometry 	 bfgs 	 1E-2
  relax_unit_cell 	 full
  #===============================================================================
  
  ################################################################################
  #
  #  FHI-aims code project
  # Volker Blum, Fritz Haber Institute Berlin, 2009
  #
  #  Suggested "tight" defaults for Pd atom (to be pasted into control.in file)
  #
  ################################################################################
    species        Pd
  #     global species definitions
      nucleus             46
      mass                106.42
  #
      l_hartree           6
  #
      cut_pot             4.0  2.0  1.0
      basis_dep_cutoff    1e-4
  #
      radial_base         62 7.0
      radial_multiplier   2
      angular_grids specified
        division   0.3627   50
        division   0.7349  110
        division   1.0624  194
        division   1.2496  302
        division   1.6740  434
  #      division   2.0126  590
  #      division   2.0830  770
  #      division   2.7936 1202
  #       outer_grid  974
        outer_grid  434
  ################################################################################
  #
  #  Definition of "minimal" basis
  #
  ################################################################################
  #     valence basis states
      valence      5  s   1.
      valence      4  p   6.
      valence      4  d   9.
  #     ion occupancy
      ion_occ     5  s   0.
      ion_occ     4  p   6.
      ion_occ     4  d   8.
  ################################################################################
  #
  #  Suggested additional basis functions. For production calculations,
  #  uncomment them one after another (the most important basis functions are
  #  listed first).
  #
  #  Constructed for dimers: 2.0 A, 2.275 A, 2.75 A, 3.75 A
  #
  ################################################################################
  #  "First tier" - max. impr. -120.76  meV, min. impr. -5.71 meV
       ionic 5 p auto
       hydro 4 f 8
       hydro 5 g 10
       hydro 3 s 2.6
       hydro 3 d 2.5
  #  "Second tier" - max. impr. -5.00  meV, min. impr. -0.62 meV
  #     hydro 5 f 17.2
  #     hydro 6 h 14
  #     hydro 4 d 4
  #     hydro 5 f 7.6
  #     hydro 3 p 3.3
  #     hydro 4 s 9.4
  #  "Third tier" - max. impr. -0.54  meV, min. impr. -0.14 meV
  #     hydro 4 f 20
  #     hydro 5 g 12.8
  #     hydro 5 d 9.8
  #     hydro 6 h 15.2
  #     hydro 5 s 10
  #     hydro 6 p 9.8
  #  "Fourth tier" - max. impr. -0.15  meV, min. impr. -0.05 meV
  #     hydro 5 f 9.2
  #     hydro 2 s 5.6
  #     hydro 5 f 43.2
  #     hydro 5 d 13.2
  #     hydro 5 g 14
  #     hydro 4 p 4.7
  ################################################################################
  #
  #  FHI-aims code project
  # Volker Blum, Fritz Haber Institute Berlin, 2009
  #
  #  Suggested "tight" defaults for Se atom (to be pasted into control.in file)
  #
  ################################################################################
    species        Se
  #     global species definitions
      nucleus             34
      mass                78.96
  #
      l_hartree           6
  #
      cut_pot             4.0          2.0  1.0
      basis_dep_cutoff    1e-4
  #
      radial_base         55 7.0
      radial_multiplier   2
      angular_grids       specified
        division   0.0830  110
        division   0.1357  194
        division   0.7377  302
        division   0.8610  434
  #      division   0.9640  590
  #      division   1.0773  770
  #      division   2.5539  974
  #      outer_grid  974
        outer_grid  434
  ################################################################################
  #
  #  Definition of "minimal" basis
  #
  ################################################################################
  #     valence basis states
      valence      4  s   2.
      valence      4  p   4.
      valence      3  d  10.
  #     ion occupancy
      ion_occ      4  s   1.
      ion_occ      4  p   3.
      ion_occ      3  d  10.
  ################################################################################
  #
  #  Suggested additional basis functions. For production calculations,
  #  uncomment them one after another (the most important basis functions are
  #  listed first).
  #
  #  Constructed for dimers: 1.85 A, 2.15 A, 2.50 A, 3.00 A, 4.00 A
  #
  ################################################################################
  #  "First tier" - improvements: -336.21 meV to -36.85 meV
       hydro 3 d 4.3
       hydro 2 p 1.6
       hydro 4 f 7.2
       ionic 4 s auto
  #  "Second tier" - improvements: -14.39 meV to -1.49 meV
  #     hydro 5 g 10.4
  #     hydro 4 p 4.5
  #     hydro 4 d 6.2
  #     hydro 4 f 11.2
  #     hydro 1 s 0.65
  #     hydro 6 h 15.2
  #  "Third tier" - improvements: -0.46 meV and below
  #     hydro 5 g 14.4
  #     ionic 4 d auto
  #     hydro 4 f 22.4
  #     hydro 5 f 7.4
  #     hydro 5 p 8
  #     hydro 5 s 9.4
  #  "Fourth tier" - improvements: -0.12 meV and below
  #     hydro 5 d 11.6
  #     hydro 6 h 18
  #     hydro 4 p 4
  #     hydro 5 f 16
  #     hydro 4 s 3.9
  #
  #
  
  -----------------------------------------------------------------------
  Completed first pass over input file control.in .
  -----------------------------------------------------------------------
  
  
  -----------------------------------------------------------------------
  Parsing geometry.in (first pass over file, find array dimensions only).
  The contents of geometry.in will be repeated verbatim below
  unless switched off by setting 'verbatim_writeout .false.' .
  in the first line of geometry.in .
  -----------------------------------------------------------------------
  
  #
  # This is the geometry file that corresponds to the current relaxation step.
  # If you do not want this file to be written, set the "write_restart_geometry" flag to .false.
  #  aims_uuid : 6833698B-C0DB-4960-A25F-8259DA2B1C7B
  #
  lattice_vector      5.84470778      0.00000000      0.00000000
  lattice_vector      0.00000000      5.95274079      0.00000000
  lattice_vector      0.00000000      0.00000000      7.47848143
  atom_frac       0.50169204      0.00161730      0.00153384 Pd
  atom_frac       0.00159337      0.00164373      0.50183504 Pd
  atom_frac       0.00167174      0.50169982      0.00154103 Pd
  atom_frac       0.50175267      0.50173097      0.50182258 Pd
  atom_frac       0.61337008      0.11966299      0.40392175 Se
  atom_frac       0.89015852      0.88374551      0.90392497 Se
  atom_frac       0.11331766      0.38370169      0.59960074 Se
  atom_frac       0.39000554      0.61975721      0.09939124 Se
  atom_frac       0.39006109      0.88382938      0.59958953 Se
  atom_frac       0.11332184      0.11969328      0.09945251 Se
  atom_frac       0.89016829      0.61975936      0.40391618 Se
  atom_frac       0.61339993      0.38367153      0.90398337 Se
  #
  # What follows is the current estimated Hessian matrix constructed by the BFGS algorithm.
  # This is NOT the true Hessian matrix of the system.
  # If you do not want this information here, switch it off using the "hessian_to_restart_geometry" keyword.
  #
  trust_radius             0.0122015458
  hessian_block                1       1           5.953413           0.094231          -2.168182           0.094231           6.22395
  hessian_block                1       2           0.061599           0.440281           0.063769           0.465629           0.34097
  hessian_block                1       3           0.116989           0.517915           0.046805          -0.172778          -0.23038
  hessian_block                1       4           0.566575           0.295451          -0.031266           0.112720          -0.29207
  hessian_block                1       5          -0.221967          -0.540727          -0.225030          -0.506799          -0.01087
  hessian_block                1       6          -1.741984           0.156754           0.729905           0.356473          -0.27976
  hessian_block                1       7          -0.453091           0.026815           0.220578           0.259864           0.30536
  hessian_block                1       8          -0.164658          -0.525952           0.313784          -0.532375          -1.93531
  hessian_block                1       9          -0.102106           0.077383           0.190600          -0.305414          -0.25184
  hessian_block                1      10          -2.328901           0.683371           0.907828           0.196255          -0.40422
  hessian_block                1      11           0.153087          -0.303709          -0.226673          -0.028325          -0.08498
  hessian_block                1      12          -0.273045          -0.921816           0.177881           0.060518          -1.73378
  hessian_block                2       2           6.106252           0.189255           2.212313           0.189255           6.94696
  hessian_block                2       3           0.838056           0.581364           0.258845          -0.414523          -0.35200
  hessian_block                2       4           0.286075           0.559249           0.091749          -0.610877           0.42832
  hessian_block                2       5          -2.245228           0.223262          -0.836386           0.315476          -0.58886
  hessian_block                2       6          -0.690389          -0.256338          -0.160641           0.036327          -0.93740
  hessian_block                2       7          -0.314889          -0.723635          -0.384595          -0.418069          -1.92232
  hessian_block                2       8          -0.037366          -0.431958          -0.190775           0.185705          -0.49727
  hessian_block                2       9          -1.925092           0.314164          -0.973526           0.780672          -0.87250
  hessian_block                2      10           0.554917          -0.228537           0.134797          -0.217500           0.61062
  hessian_block                2      11          -0.348306          -0.548174          -0.106969          -0.247171          -2.35760
  hessian_block                2      12          -0.719716          -0.144279          -0.087880          -0.039578           0.84811
  hessian_block                3       3           6.376869          -0.438312           2.321403          -0.438312           6.18391
  hessian_block                3       4           0.368605          -0.273915          -0.001865          -0.428600           0.22181
  hessian_block                3       5          -0.556295           0.102433          -0.257919          -0.316537           0.39312
  hessian_block                3       6          -0.969140           0.787579          -0.526597           0.177804          -1.79546
  hessian_block                3       7          -0.205381           0.215603           0.172150           0.002462           0.09747
  hessian_block                3       8          -1.950381          -0.353853          -0.811226          -0.577148          -0.33157
  hessian_block                3       9          -0.266794           0.347739           0.107029           0.094967          -0.10566
  hessian_block                3      10           0.483640           0.403612           0.075906           0.684555          -1.86838
  hessian_block                3      11          -0.181375           0.024098          -0.198644           0.071536          -0.25298
  hessian_block                3      12          -2.488882          -0.227683          -0.987767          -0.370007          -0.31284
  hessian_block                4       4           5.945389           0.012961          -2.027045           0.012961           6.77484
  hessian_block                4       5          -0.540891           0.893519           0.283692           0.091031          -1.91562
  hessian_block                4       6          -0.213496           0.420758           0.063517          -0.233652          -0.73583
  hessian_block                4       7          -2.047726          -0.551329           0.673063          -0.221868          -0.46269
  hessian_block                4       8          -0.123032          -0.254349          -0.140287           0.028720          -0.60365
  hessian_block                4       9          -0.266035           0.521394           0.144460           0.160498          -2.44047
  hessian_block                4      10          -0.354935          -0.462625          -0.134222          -0.300542           0.91707
  hessian_block                4      11          -1.809074          -0.248064           0.987100          -0.600631          -0.75654
  hessian_block                4      12          -0.245544           0.594490           0.045308           0.482693           0.51187
  hessian_block                5       5           5.537114          -0.363385          -1.560889          -0.363385           6.11060
  hessian_block                5       6           0.607043           0.101803          -0.438107          -0.092067           0.05062
  hessian_block                5       7          -0.106998           1.072352          -0.455239          -0.909117           0.30404
  hessian_block                5       8          -0.283879          -0.037469           0.727182           0.374459           0.03078
  hessian_block                5       9          -1.503840          -0.280060           1.915677          -0.430238          -1.72283
  hessian_block                5      10          -0.191114           0.331464           0.417623           0.623456           0.19267
  hessian_block                5      11           0.435244          -0.844334           0.465157           0.562560          -0.53017
  hessian_block                5      12           0.636723           0.436459          -0.879609          -0.444155          -0.66646
  hessian_block                6       6           5.149838           0.041872           1.501391           0.041872           6.02076
  hessian_block                6       7           0.246444           0.014409          -0.197196          -0.052626           0.37434
  hessian_block                6       8          -0.037221           0.580686           0.461634           0.136385           0.56370
  hessian_block                6       9           0.026966           0.260079           0.213794          -0.210885           0.69569
  hessian_block                6      10          -1.571260          -0.937003          -2.501849          -1.045901          -2.35662
  hessian_block                6      11           0.026449          -0.003081           0.062519          -0.012462           0.57141
  hessian_block                6      12           0.732659          -0.201849           0.032422          -0.066938          -0.52443
  hessian_block                7       7           5.516112           0.445958           1.462990           0.445958           5.90295
  hessian_block                7       8          -0.374125           0.311360          -0.500820           0.148709          -0.14883
  hessian_block                7       9           0.331568           0.666273          -0.320300          -0.648335          -0.52747
  hessian_block                7      10           0.184121          -0.343793          -0.202785           0.191087          -0.95041
  hessian_block                7      11          -1.819468           0.427993          -2.028760           0.410747          -1.62658
  hessian_block                7      12           0.609343          -0.168441           0.769802          -0.602384           0.30116
  hessian_block                8       8           5.050995          -0.013654          -1.261341          -0.013654           5.89005
  hessian_block                8       9           0.460934          -0.424317          -0.305348           0.311133           0.36257
  hessian_block                8      10          -0.087840           0.007147           0.216288          -0.748672          -0.63336
  hessian_block                8      11           0.351347          -0.326410          -0.642257           0.112587           0.86173
  hessian_block                8      12          -1.238862           0.992779           2.003551           1.050138          -1.91180
  hessian_block                9       9           5.172201          -0.595779          -0.890539          -0.595779           6.35442
  hessian_block                9      10          -0.064441           0.584709          -0.179636          -0.422193          -0.25705
  hessian_block                9      11          -0.246373           0.727890          -0.562994          -0.609587           0.86159
  hessian_block                9      12          -0.051076          -0.469219           0.941744           0.144904          -0.44941
  hessian_block               10      10           5.567610           0.438044           1.452577           0.438044           6.91311
  hessian_block               10      11          -0.136368           0.145725           0.144279           0.127600          -0.54034
  hessian_block               10      12          -0.489519           0.455683           0.061952          -0.603989           0.02394
  hessian_block               11      11           5.365108           0.474987           1.274398           0.474987           6.05613
  hessian_block               11      12          -0.224359          -0.261841          -1.017255           0.473079          -0.55463
  hessian_block               12      12           5.318188          -0.084280          -1.060149          -0.084280           6.11530
  hessian_block_lv             1       1          21.718759          -6.202792           3.521086          -6.202792          18.88930
  hessian_block_lv_atom        1       1          -0.219687           0.095044          -0.162666          -0.231266          -0.02190
  hessian_block_lv_atom        1       2          -0.278207          -0.173574          -0.171861           0.089305          -0.16979
  hessian_block_lv_atom        1       3          -0.285359          -0.313633          -0.066375           0.079659           0.18540
  hessian_block_lv_atom        1       4          -0.199009          -0.050364          -0.133674           0.461695           0.01888
  hessian_block_lv_atom        1       5           0.618751           0.354438           0.700868           0.449678           0.51267
  hessian_block_lv_atom        1       6           0.501071          -0.145079          -0.047289          -0.279073          -0.40945
  hessian_block_lv_atom        1       7           0.177475           0.078857           0.525129          -0.617145          -0.46168
  hessian_block_lv_atom        1       8          -0.481435           0.142869          -0.841752           0.226055           0.57028
  hessian_block_lv_atom        1       9          -0.143726          -0.024631          -0.537522          -0.479473          -0.54357
  hessian_block_lv_atom        1      10          -0.224232           0.077082           0.384179           0.672039           0.20131
  hessian_block_lv_atom        1      11          -0.176492          -0.185459          -0.380321           0.074249           0.65726
  hessian_block_lv_atom        1      12           0.710847           0.144447           0.731283          -0.445724          -0.53942
  symmetry_n_params 39 3 36
  symmetry_params a1 b2 c3 x0 x1 x2 x3 x4 x5 x6 x7 x8 x9 x10 x11 x12 x13 x14 x15 x16 x17 x18 x19 x20 x21 x22 x23 x24 x25 x26 x27 x28 x
  symmetry_lv a1 , 0 , 0
  symmetry_lv 0 , b2 , 0
  symmetry_lv 0 , 0 , c3
  symmetry_frac x0 , x1 , x2
  symmetry_frac x3 , x4 , x5
  symmetry_frac x6 , x7 , x8
  symmetry_frac x9 , x10 , x11
  symmetry_frac x12 , x13 , x14
  symmetry_frac x15 , x16 , x17
  symmetry_frac x18 , x19 , x20
  symmetry_frac x21 , x22 , x23
  symmetry_frac x24 , x25 , x26
  symmetry_frac x27 , x28 , x29
  symmetry_frac x30 , x31 , x32
  symmetry_frac x33 , x34 , x35
  
  -----------------------------------------------------------------------
  Completed first pass over input file geometry.in .
  -----------------------------------------------------------------------
  

  Basic array size parameters:
  | Number of species                 :        2
  | Number of atoms                   :       12
  | Number of lattice vectors         :        3
  | Max. basis fn. angular momentum   :        4
  | Max. atomic/ionic basis occupied n:        5
  | Max. number of basis fn. types    :        3
  | Max. radial fns per species/type  :       10
  | Max. logarithmic grid size        :     1444
  | Max. radial integration grid size :      125
  | Max. angular integration grid size:      434
  | Max. angular grid division number :        8
  | Radial grid for Hartree potential :     1444
  | Number of spin channels           :        1

------------------------------------------------------------
          Reading file control.in.
------------------------------------------------------------
  XC: Using PBE gradient-corrected functionals.
  Using libMBD for calculating MBD and TS energies
  Spin treatment: No spin polarisation.
  Found k-point grid:         6         6         5
  Scalar relativistic treatment of kinetic energy: on-site free-atom approximation to ZORA.
  Max energy increase before discarding BFGS move:   0.100000E-01 eV
  Assuming qualitatively harmonic for steps shorter than   0.150000E-01 A.
  S.C.F. convergence parameters will be adjusted in iteration number     3 of each new s.c.f. cycle.
  Geometry relaxation: Modified BFGS - TRM (trust radius method) for lattice optimization.
  Convergence accuracy for geometry relaxation: Maximum force <   0.100000E-01 eV/A.
 
  Reading configuration options for species Pd                  .
  | Found nuclear charge :  46.0000
  | Found atomic mass :    106.420000000000      amu
  | Found l_max for Hartree potential  :   6
  | Found cutoff potl. onset [A], width [A], scale factor :    4.00000    2.00000    1.00000
  | Threshold for basis-dependent cutoff potential is   0.100000E-03
  | Found data for basic radial integration grid :    62 points, outermost radius =    7.000 A
  | Found multiplier for basic radial grid :   2
  | Found angular grid specification: user-specified.
  | Specified grid contains     6 separate shells.
  | Check grid settings after all constraints further below.
  | Found free-atom valence shell :  5 s   1.000
  | Found free-atom valence shell :  4 p   6.000
  | Found free-atom valence shell :  4 d   9.000
  | Found free-ion valence shell :  5 s   0.000
  | Found free-ion valence shell :  4 p   6.000
  | Found free-ion valence shell :  4 d   8.000
  | Found ionic basis function :  5 p , default cutoff radius.
  | Found hydrogenic basis function :  4 f   8.000
  | Found hydrogenic basis function :  5 g  10.000
  | Found hydrogenic basis function :  3 s   2.600
  | Found hydrogenic basis function :  3 d   2.500
  Species Pd                  : Missing cutoff potential type.
  Defaulting to exp(1/x)/(1-x)^2 type cutoff potential.
  Species Pd: No 'logarithmic' tag. Using default grid for free atom:
  | Default logarithmic grid data [bohr] : 0.1000E-03 0.1000E+03 0.1012E+01
  | Will include ionic basis functions of  2.0-fold positive Pd                   ion.
  Species Pd: On-site basis accuracy parameter (for Gram-Schmidt orthonormalisation) not specified.
  Using default value basis_acc =  0.1000000E-03.
  Species Pd                  : Using default innermost maximum threshold i_radial=  2 for radial functions.
  Species Pd                  : Default cutoff onset for free atom density etc. : 0.40000000E+01 AA.
  Species Pd                  : Basic radial grid will be enhanced according to radial_multiplier =   2, to contain   125 grid points.
 
  Reading configuration options for species Se                  .
  | Found nuclear charge :  34.0000
  | Found atomic mass :    78.9600000000000      amu
  | Found l_max for Hartree potential  :   6
  | Found cutoff potl. onset [A], width [A], scale factor :    4.00000    2.00000    1.00000
  | Threshold for basis-dependent cutoff potential is   0.100000E-03
  | Found data for basic radial integration grid :    55 points, outermost radius =    7.000 A
  | Found multiplier for basic radial grid :   2
  | Found angular grid specification: user-specified.
  | Specified grid contains     5 separate shells.
  | Check grid settings after all constraints further below.
  | Found free-atom valence shell :  4 s   2.000
  | Found free-atom valence shell :  4 p   4.000
  | Found free-atom valence shell :  3 d  10.000
  | Found free-ion valence shell :  4 s   1.000
  | Found free-ion valence shell :  4 p   3.000
  | Found free-ion valence shell :  3 d  10.000
  | Found hydrogenic basis function :  3 d   4.300
  | Found hydrogenic basis function :  2 p   1.600
  | Found hydrogenic basis function :  4 f   7.200
  | Found ionic basis function :  4 s , default cutoff radius.
  Species Se                  : Missing cutoff potential type.
  Defaulting to exp(1/x)/(1-x)^2 type cutoff potential.
  Species Se: No 'logarithmic' tag. Using default grid for free atom:
  | Default logarithmic grid data [bohr] : 0.1000E-03 0.1000E+03 0.1012E+01
  | Will include ionic basis functions of  2.0-fold positive Se                   ion.
  Species Se: On-site basis accuracy parameter (for Gram-Schmidt orthonormalisation) not specified.
  Using default value basis_acc =  0.1000000E-03.
  Species Se                  : Using default innermost maximum threshold i_radial=  2 for radial functions.
  Species Se                  : Default cutoff onset for free atom density etc. : 0.40000000E+01 AA.
  Species Se                  : Basic radial grid will be enhanced according to radial_multiplier =   2, to contain   111 grid points.
 
  Finished reading input file 'control.in'. Consistency checks are next.
 
  MPI_IN_PLACE appears to work with this MPI implementation.
  | Keeping use_mpi_in_place .true. (see manual).
  Target number of points in a grid batch is not set. Defaulting to  100
  Method for grid partitioning is not set. Defaulting to parallel hash+maxmin partitioning.
  Batch size limit is not set. Defaulting to    200
  By default, will store active basis functions for each batch.
  If in need of memory, prune_basis_once .false. can be used to disable this option.
  communication_type for Hartree potential was not specified.
  Defaulting to calc_hartree .
  Defaulting to Pulay charge density mixer.
  Pulay mixer: Number of relevant iterations not set.
  Defaulting to    8 iterations.
  Pulay mixer: Number of initial linear mixing iterations not set.
  Defaulting to    0 iterations.
  Work space size for distributed Hartree potential not set.
  Defaulting to   0.200000E+03 MB.
  Mixing parameter for charge density mixing has not been set.
  Using default: charge_mix_param =     0.0500.
  The mixing parameter will be adjusted in iteration number     3 of each s.c.f. cycle (i.e., each geometry step).
  Algorithm-dependent basis array size parameters:
  | n_max_pulay                         :        8
  Maximum number of self-consistency iterations not provided.
  Presetting  1000 iterations.
  Presetting      1001 iterations before the initial mixing cycle
  is restarted anyway using the sc_init_iter criterion / keyword.
  Presetting a factor      1.000 between actual scf density residual
  and density convergence criterion sc_accuracy_rho below which sc_init_iter
  takes no effect.
 * No s.c.f. convergence criteria (sc_accuracy_*) were provided in control.in.
 * The run will proceed with a reasonable default guess, but please check whether.
 * the s.c.f. cycles seem to take too much or too little time.
  No maximum number of relaxation steps, defaulting to     1000
  Using explicit Hessian from geometry.in.
  Maximum energy tolerance by which TRM/BFGS trajectory may increase over multiple steps:   0.300000E-02
  No trust radius initializer. Defaulting to   0.200000E+00 A.
  Unit cell relaxation: Unit cell will be relaxed fully.
  Unit cell relaxation: Analytical stress will be used.
  Analytical stress will be computed.
  Analytical stress calculation: Only the upper triangle is calculated.
                                 Final output is symmetrized.
  Analytical stress calculation: scf convergence accuracy of stress not set.
                                 Analytical stress self-consistency will not be checked explicitly.
                                 Be sure to set other criteria like sc_accuracy_rho tight enough.
 * Notice: The s.c.f. convergence criterion sc_accuracy_rho was not provided.
 * We used to stop in this case, and ask the user to provide reasonable
 * scf convergence criteria. However, this led some users to employ criteria
 * that led to extremely long run times, e.g., for simple relaxation.
 * We now preset a default value for sc_accuracy_rho if it is not set.
 * You may still wish to check if this setting is too tight or too loose for your needs.
 * Based on n_atoms, FHI-aims chose sc_accuracy_rho =  0.141421E-05 .
  Force calculation: scf convergence accuracy of forces not set.
  Defaulting to 'sc_accuracy_forces not_checked'.
  Handling of forces: Unphysical translation and rotation will be removed from forces.
  No accuracy limit for integral partition fn. given. Defaulting to  0.1000E-14.
  No threshold value for u(r) in integrations given. Defaulting to  0.1000E-05.
  No occupation type (smearing scheme) given. Defaulting to Gaussian broadening, width =  0.1000E-01 eV.
  The width will be adjusted in iteration number     3 of each s.c.f. cycle (i.e., each geometry step).
  S.C.F. convergence parameters will be adjusted in iteration number     3 of the first full s.c.f. cycle only.
  No accuracy for occupation numbers given. Defaulting to  0.1000E-12.
  No threshold value for occupation numbers given. Defaulting to  0.0000E+00.
  No accuracy for fermi level given. Defaulting to  0.1000E-19.
  Maximum # of iterations to find E_F not set. Defaulting to  200.
  Preferred method for the eigenvalue solver ('KS_method') not specified in 'control.in'.
  Defaulting to serial version, LAPACK (via ELSI), since more k-points than CPUs available.
  Will not use alltoall communication since running on < 1024 CPUs.
  Threshold for basis singularities not set.
  Default threshold for basis singularities:  0.1000E-04
  partition_type (choice of integration weights) for integrals was not specified.
  | Using a version of the partition function of Stratmann and coworkers ('stratmann_sparse').
  | At each grid point, the set of atoms used to build the partition table is smoothly restricted to
  | only those atoms whose free-atom density would be non-zero at that grid point.
  Partitioning for Hartree potential was not defined. Using partition_type for integrals.
  | Adjusted default value of keyword multip_moments_threshold to:       0.10000000E-11
  | This value may affect high angular momentum components of the Hartree potential in periodic systems.
  Angular momentum expansion for Kerker preconditioner not set explicitly.
  | Using default value of   0
  No explicit requirement for turning off preconditioner.
  | By default, it will be turned off when the charge convergence reaches
  | sc_accuracy_rho  =   0.141421E-05
  No special mixing parameter while Kerker preconditioner is on.
  Using default: charge_mix_param =     0.0500.
  No q(lm)/r^(l+1) cutoff set for long-range Hartree potential.
  | Using default value of  0.100000E-09 .
  | Verify using the multipole_threshold keyword.
  Defaulting to new monopole extrapolation.
  Density update method: automatic selection selected.
  Using density matrix based charge density update.
  Using density matrix based charge density update.
  Using packed matrix style: index .
  Geometry relaxation: A file "geometry.in.next_step" is written out by default after each step.
  | This file contains the geometry of the current relaxation step as well as
  | the current Hessian matrix needed to restart the relaxation algorithm.
  | If you do not want part or all of this information, use the keywords
  | "write_restart_geometry" or "hessian_to_restart_geometry" to switch the output off.
  Defaulting to use time-reversal symmetry for k-point grid.
  Charge integration errors on the 3D integration grid will be compensated
  by explicit normalization and distribution of residual charges.
  Use the "compensate_multipole_errors" flag to change this behaviour.
------------------------------------------------------------


------------------------------------------------------------
          Reading geometry description geometry.in.
------------------------------------------------------------
  Input structure read successfully.
  The structure contains       12 atoms,  and a total of        456.000 electrons.

  Input geometry:
  | Unit cell:
  |        5.84470778        0.00000000        0.00000000
  |        0.00000000        5.95274079        0.00000000
  |        0.00000000        0.00000000        7.47848143
  | Atomic structure:
  |       Atom                x [A]            y [A]            z [A]
  |    1: Species Pd            2.93224337        0.00962737        0.01147079
  |    2: Species Pd            0.00931278        0.00978470        3.75296403
  |    3: Species Pd            0.00977083        2.98648898        0.01152456
  |    4: Species Pd            2.93259773        2.98667441        3.75287085
  |    5: Species Se            3.58496888        0.71232276        3.02072131
  |    6: Species Se            5.20271643        5.26070795        6.75998610
  |    7: Species Se            0.66230861        2.28407670        4.48410300
  |    8: Species Se            2.27946841        3.68925402        0.74329554
  |    9: Species Se            2.27979309        5.26120720        4.48401917
  |   10: Species Se            0.66233304        0.71250307        0.74375375
  |   11: Species Se            5.20277353        3.68926682        3.02067965
  |   12: Species Se            3.58514334        2.28389717        6.76042285

  Lattice parameters for 3D lattice (in Angstroms) :     5.844708    5.952741    7.478481
  Angle(s) between unit vectors (in degrees)       :    90.000000   90.000000   90.000000

  | The smallest distance between any two atoms is         2.41084127 AA.
  | The first atom of this pair is atom number                      6 .
  | The second atom of this pair is atom number                    10 .
  | Wigner-Seitz cell of the first atom image           0     0     0 .
  | (The Wigner-Seitz cell of the second atom is 0 0 0  by definition.)

  Symmetry information by spglib:
  | Precision set to  0.1E-04
  | Number of Operations  : 1
  | Space group           : 1
  | International         : P1  0     q
  | Schoenflies           : C1^1

  Quantities derived from the lattice vectors:
  | Reciprocal lattice vector 1:  1.075021  0.000000  0.000000
  | Reciprocal lattice vector 2:  0.000000  1.055511  0.000000
  | Reciprocal lattice vector 3:  0.000000  0.000000  0.840169
  | Unit cell volume                               :   0.260192E+03  A^3

  Range separation radius for Ewald summation (hartree_convergence_parameter):      4.00391572 bohr.

  Fractional coordinates:
                         L1                L2                L3
       atom_frac         0.50169204        0.00161730        0.00153384  Pd
       atom_frac         0.00159337        0.00164373        0.50183504  Pd
       atom_frac         0.00167174        0.50169982        0.00154103  Pd
       atom_frac         0.50175267        0.50173097        0.50182258  Pd
       atom_frac         0.61337008        0.11966299        0.40392175  Se
       atom_frac         0.89015852        0.88374551        0.90392497  Se
       atom_frac         0.11331766        0.38370169        0.59960074  Se
       atom_frac         0.39000554        0.61975721        0.09939124  Se
       atom_frac         0.39006109        0.88382938        0.59958953  Se
       atom_frac         0.11332184        0.11969328        0.09945251  Se
       atom_frac         0.89016829        0.61975936        0.40391618  Se
       atom_frac         0.61339993        0.38367153        0.90398337  Se

  Number of empty states per atom not set in control.in - providing a guess from actual geometry.
  | Total number of empty states used during s.c.f. cycle:       66
  If you use a very high smearing, use empty_states (per atom!) in control.in to increase this value.

  Structure-dependent array size parameters: 
  | Maximum number of distinct radial functions  :       27
  | Maximum number of basis functions            :      468
  | Number of Kohn-Sham states (occupied + empty):      294
------------------------------------------------------------

------------------------------------------------------------
          Preparing all fixed parts of the calculation.
------------------------------------------------------------
  Determining machine precision:
    2.225073858507201E-308
  Setting up grids for atomic and cluster calculations.

  Creating wave function, potential, and density for free atoms.

  Species: Pd

  List of occupied orbitals and eigenvalues:
    n    l              occ      energy [Ha]    energy [eV]
    1    0           2.0000      -913.269104    -24851.3168
    2    0           2.0000      -130.434372     -3549.2998
    3    0           2.0000       -23.521804      -640.0609
    4    0           2.0000        -3.256918       -88.6253
    5    0           1.0000        -0.157260        -4.2793
    2    1           6.0000      -116.910756     -3181.3035
    3    1           6.0000       -19.103344      -519.8284
    4    1           6.0000        -1.998052       -54.3697
    3    2          10.0000       -12.098182      -329.2083
    4    2           9.0000        -0.243389        -6.6230


  Species: Se

  List of occupied orbitals and eigenvalues:
    n    l              occ      energy [Ha]    energy [eV]
    1    0           2.0000      -466.337810    -12689.6975
    2    0           2.0000       -59.202598     -1610.9847
    3    0           2.0000        -7.847116      -213.5309
    4    0           2.0000        -0.634372       -17.2621
    2    1           6.0000       -52.061107     -1416.6548
    3    1           6.0000        -5.620941      -152.9536
    4    1           4.0000        -0.238469        -6.4891
    3    2          10.0000        -1.951949       -53.1152

  Creating fixed part of basis set: Ionic, confined, hydrogenic.
 
  Pd                   ion:

  List of free ionic orbitals and eigenvalues:
    n    l      energy [Ha]    energy [eV]
    1    0      -914.099884    -24873.9234
    2    0      -131.248265     -3571.4470
    3    0       -24.332473      -662.1203
    4    0        -4.059276      -110.4585
    2    1      -117.724296     -3203.4411
    3    1       -19.913908      -541.8850
    4    1        -2.795328       -76.0648
    3    2       -12.908733      -351.2645
    4    2        -1.004248       -27.3270


  List of ionic basis orbitals and eigenvalues:
    n    l      energy [Ha]    energy [eV]    outer radius [A]
    5    1        -0.516938       -14.0666       5.427025

 
  Pd                   hydrogenic:
 
  List of hydrogenic basis orbitals: 
    n    l      effective z      eigenvalue [eV]  inner max. [A]     outer max. [A]     outer radius [A]   
    4    3         8.000000       -54.4226           1.054686           1.054686           4.629581
    5    4        10.000000       -54.4226           1.330451           1.330451           5.043202
    3    0         2.600000        -9.8948           0.150992           2.606197           5.493778
    3    2         2.500000        -9.3396           1.873517           1.873517           5.493778
 
 
  Se                   ion:

  List of free ionic orbitals and eigenvalues:
    n    l      energy [Ha]    energy [eV]
    1    0      -467.261007    -12714.8189
    2    0       -60.104893     -1635.5374
    3    0        -8.743714      -237.9286
    4    0        -1.414053       -38.4783
    2    1       -52.964156     -1441.2280
    3    1        -6.516916      -177.3343
    4    1        -0.961869       -26.1738
    3    2        -2.844511       -77.4031


  List of ionic basis orbitals and eigenvalues:
    n    l      energy [Ha]    energy [eV]    outer radius [A]
    4    0        -1.414046       -38.4782       4.083166

 
  Se                   hydrogenic:
 
  List of hydrogenic basis orbitals: 
    n    l      effective z      eigenvalue [eV]  inner max. [A]     outer max. [A]     outer radius [A]   
    3    2         4.300000       -27.9518           1.103845           1.103845           5.278265
    2    1         1.600000        -8.6828           1.326010           1.326010           5.475439
    4    3         7.200000       -44.0822           1.173422           1.173422           4.965294
 

  Adding cutoff potential to free-atom effective potential.
  Creating atomic-like basis functions for current effective potential.

  Species Pd                  :

  List of atomic basis orbitals and eigenvalues:
    n    l      energy [Ha]    energy [eV]    outer radius [A]
    1    0      -913.269104    -24851.3168       0.223280
    2    0      -130.434372     -3549.2998       0.615909
    3    0       -23.521804      -640.0609       1.414312
    4    0        -3.256918       -88.6253       3.581357
    5    0        -0.157260        -4.2793       5.427025
    2    1      -116.910756     -3181.3035       0.631154
    3    1       -19.103344      -519.8284       1.540671
    4    1        -1.998052       -54.3697       4.408641
    3    2       -12.098182      -329.2083       1.806051
    4    2        -0.243389        -6.6230       5.361084


  Species Se                  :

  List of atomic basis orbitals and eigenvalues:
    n    l      energy [Ha]    energy [eV]    outer radius [A]
    1    0      -466.337810    -12689.6975       0.309561
    2    0       -59.202598     -1610.9847       0.885812
    3    0        -7.847116      -213.5309       2.355489
    4    0        -0.634372       -17.2621       5.214131
    2    1       -52.061107     -1416.6548       0.907737
    3    1        -5.620941      -152.9536       2.694529
    4    1        -0.238469        -6.4891       5.408909
    3    2        -1.951949       -53.1152       4.083166

  Assembling full basis from fixed parts.
  | Species Pd :   atomic orbital   1 s accepted.
  | Species Pd :   atomic orbital   2 s accepted.
  | Species Pd :   atomic orbital   3 s accepted.
  | Species Pd :   atomic orbital   4 s accepted.
  | Species Pd :   atomic orbital   5 s accepted.
  | Species Pd :    hydro orbital   3 s accepted.
  | Species Pd :   atomic orbital   2 p accepted.
  | Species Pd :   atomic orbital   3 p accepted.
  | Species Pd :   atomic orbital   4 p accepted.
  | Species Pd :    ionic orbital   5 p accepted.
  | Species Pd :   atomic orbital   3 d accepted.
  | Species Pd :   atomic orbital   4 d accepted.
  | Species Pd :    hydro orbital   3 d accepted.
  | Species Pd :    hydro orbital   4 f accepted.
  | Species Pd :    hydro orbital   5 g accepted.
  | Species Se :   atomic orbital   1 s accepted.
  | Species Se :   atomic orbital   2 s accepted.
  | Species Se :   atomic orbital   3 s accepted.
  | Species Se :    ionic orbital   4 s accepted.
  | Species Se :   atomic orbital   4 s accepted.
  | Species Se :   atomic orbital   2 p accepted.
  | Species Se :   atomic orbital   3 p accepted.
  | Species Se :   atomic orbital   4 p accepted.
  | Species Se :    hydro orbital   2 p accepted.
  | Species Se :   atomic orbital   3 d accepted.
  | Species Se :    hydro orbital   3 d accepted.
  | Species Se :    hydro orbital   4 f accepted.
 
  Basis size parameters after reduction:
  | Total number of radial functions:       27
  | Total number of basis functions :      468
 
  Per-task memory consumption for arrays in subroutine allocate_ext:
  |           9.993344MB.
  Testing on-site integration grid accuracy.
  |  Species  Function  <phi|h_atom|phi> (log., in eV)  <phi|h_atom|phi> (rad., in eV)
           1        1             -24851.3167505682             -24851.3148165635
           1        2              -3549.2998457785              -3549.2998098031
           1        3               -640.0608571327               -640.0608534886
           1        4                -88.6252603131                -88.6252593316
           1        5                 -4.2849374515                 -4.2849400622
           1        6                  4.9432123540                  4.9432188418
           1        7              -3181.3035399559              -3181.3035364574
           1        8               -519.8284281886               -519.8284264063
           1        9                -54.3697495804                -54.3697489261
           1       10                  0.8628369484                  0.8628370487
           1       11               -329.2082917394               -329.2082912864
           1       12                 -6.6230267036                 -6.6230265076
           1       13                  5.4924295291                  5.4924115607
           1       14                 25.0740861942                 25.0740861175
           1       15                 38.8271273823                 38.8271278029
           2       16             -12689.6974611609             -12689.6967666984
           2       17              -1610.9846578580              -1610.9846472470
           2       18               -213.5308789869               -213.5308777267
           2       19                -17.0464428502                -17.0464426496
           2       20                  6.7356859379                  6.7356842047
           2       21              -1416.6548010133              -1416.6548002108
           2       22               -152.9535734377               -152.9535727493
           2       23                 -6.4896265677                 -6.4896303794
           2       24                  5.2703037283                  5.2701679583
           2       25                -53.1152220964                -53.1152219035
           2       26                  7.6186674138                  7.6186665630
           2       27                 23.1072799052                 23.1072803137

  Preparing densities etc. for the partition functions (integrals / Hartree potential).

  Preparations completed.
  max(cpu_time)          :      0.558 s.
  Wall clock time (cpu1) :      0.659 s.
------------------------------------------------------------

------------------------------------------------------------
          Begin self-consistency loop: Initialization.

          Date     :  20200420, Time     :  204040.408
------------------------------------------------------------

  Initializing index lists of integration centers etc. from given atomic structure:
  Mapping all atomic coordinates to central unit cell.

  Initializing the k-points
  Using symmetry for reducing the k-points
  | k-points reduced from:      180 to       92
  | Number of k-points                             :        92
  The eigenvectors in the calculations are COMPLEX.
  | K-points in task   0:         3
  | K-points in task   1:         4
  | K-points in task   2:         4
  | K-points in task   3:         4
  | K-points in task   4:         4
  | K-points in task   5:         4
  | K-points in task   6:         4
  | K-points in task   7:         4
  | K-points in task   8:         4
  | K-points in task   9:         4
  | K-points in task  10:         4
  | K-points in task  11:         4
  | K-points in task  12:         4
  | K-points in task  13:         4
  | K-points in task  14:         4
  | K-points in task  15:         4
  | K-points in task  16:         4
  | K-points in task  17:         4
  | K-points in task  18:         4
  | K-points in task  19:         4
  | K-points in task  20:         4
  | K-points in task  21:         3
  | K-points in task  22:         3
  | K-points in task  23:         3
  | Number of basis functions in the Hamiltonian integrals :      5576
  | Number of basis functions in a single unit cell        :       468
  | Number of centers in hartree potential         :      1313
  | Number of centers in hartree multipole         :       766
  | Number of centers in electron density summation:       595
  | Number of centers in basis integrals           :       639
  | Number of centers in integrals                 :       236
  | Number of centers in hamiltonian               :       595
  | Consuming        123 KiB for k_phase.
  | Number of super-cells (origin) [n_cells]                     :         567
  | Number of super-cells (after PM_index) [n_cells]             :          86
  | Number of super-cells in hamiltonian [n_cells_in_hamiltonian]:          86
  | Size of matrix packed + index [n_hamiltonian_matrix_size] :     1289825

  Initializing relaxation algorithms.
  | Estimated reciprocal-space cutoff momentum G_max:         2.42557130 bohr^-1 .
  | Reciprocal lattice points for long-range Hartree potential:     418
  Partitioning the integration grid into batches with parallel hashing+maxmin method.
  | Number of batches:     4180
  | Maximal batch size:     110
  | Minimal batch size:      49
  | Average batch size:      91.899
  | Standard deviation of batch sizes:      11.384

  Integration load balanced across    24 MPI tasks.
  Work distribution over tasks is as follows:
  Task     0 has      16004 integration points.
  Task     1 has      15995 integration points.
  Task     2 has      16047 integration points.
  Task     3 has      15979 integration points.
  Task     4 has      15994 integration points.
  Task     5 has      15983 integration points.
  Task     6 has      16006 integration points.
  Task     7 has      15990 integration points.
  Task     8 has      16004 integration points.
  Task     9 has      15990 integration points.
  Task    10 has      16006 integration points.
  Task    11 has      16054 integration points.
  Task    12 has      15999 integration points.
  Task    13 has      15995 integration points.
  Task    14 has      16051 integration points.
  Task    15 has      16051 integration points.
  Task    16 has      15989 integration points.
  Task    17 has      15979 integration points.
  Task    18 has      16005 integration points.
  Task    19 has      15984 integration points.
  Task    20 has      16049 integration points.
  Task    21 has      15979 integration points.
  Task    22 has      16000 integration points.
  Task    23 has      16003 integration points.
  Initializing partition tables, free-atom densities, potentials, etc. across the integration grid (initialize_grid_storage).
  | initialize_grid_storage: Actual outermost partition radius vs. multipole_radius_free
  | (-- VB: in principle, multipole_radius_free should be larger, hence this output)
  | Species        1: Confinement radius =              6.000000000000000 AA, multipole_radius_free =              6.058219618167466 AA.
  | Species        1: outer_partition_radius set to              6.058219618167466 AA .
  | Species        2: Confinement radius =              6.000000000000000 AA, multipole_radius_free =              6.037996416842453 AA.
  | Species        2: outer_partition_radius set to              6.037996416842453 AA .
  | The sparse table of interatomic distances needs       2886.98 kbyte instead of      3266.57 kbyte of memory.
  | Net number of integration points:   384136
  | of which are non-zero points    :   322200
  | Numerical average free-atom electrostatic potential    :    -17.01991465 eV
  Renormalizing the initial density to the exact electron count on the 3D integration grid.
  | Initial density: Formal number of electrons (from input files) :     456.0000000000
  | Integrated number of electrons on 3D grid     :     456.0000543591
  | Charge integration error                      :       0.0000543591
  | Normalization factor for density and gradient :       0.9999998808
  Renormalizing the free-atom superposition density to the exact electron count on the 3D integration grid.
  | Formal number of electrons (from input files) :     456.0000000000
  | Integrated number of electrons on 3D grid     :     456.0000543591
  | Charge integration error                      :       0.0000543591
  | Normalization factor for density and gradient :       0.9999998808
  Obtaining max. number of non-zero basis functions in each batch (get_n_compute_maxes).
  | Maximal number of non-zero basis functions:     1002 in task     0
  | Maximal number of non-zero basis functions:     1018 in task     1
  | Maximal number of non-zero basis functions:     1027 in task     2
  | Maximal number of non-zero basis functions:     1010 in task     3
  | Maximal number of non-zero basis functions:     1014 in task     4
  | Maximal number of non-zero basis functions:     1048 in task     5
  | Maximal number of non-zero basis functions:     1024 in task     6
  | Maximal number of non-zero basis functions:     1012 in task     7
  | Maximal number of non-zero basis functions:     1026 in task     8
  | Maximal number of non-zero basis functions:     1013 in task     9
  | Maximal number of non-zero basis functions:     1035 in task    10
  | Maximal number of non-zero basis functions:     1010 in task    11
  | Maximal number of non-zero basis functions:     1011 in task    12
  | Maximal number of non-zero basis functions:     1001 in task    13
  | Maximal number of non-zero basis functions:     1041 in task    14
  | Maximal number of non-zero basis functions:     1022 in task    15
  | Maximal number of non-zero basis functions:     1020 in task    16
  | Maximal number of non-zero basis functions:     1014 in task    17
  | Maximal number of non-zero basis functions:     1020 in task    18
  | Maximal number of non-zero basis functions:     1026 in task    19
  | Maximal number of non-zero basis functions:     1030 in task    20
  | Maximal number of non-zero basis functions:     1011 in task    21
  | Maximal number of non-zero basis functions:     1000 in task    22
  | Maximal number of non-zero basis functions:     1037 in task    23
  Allocating        6.298 MB for KS_eigenvector_complex
  Integrating Hamiltonian matrix: batch-based integration.
  Time summed over all CPUs for integration: real work       63.500 s, elapsed       64.146 s
  Integrating overlap matrix.
  Time summed over all CPUs for integration: real work       45.938 s, elapsed       46.505 s
  Decreasing sparse matrix size:
  | Tolerance:  0.1000E-12
  Hamiltonian matrix
  | Array has  1115622 nonzero elements out of  1289825 elements
  | Sparsity factor is 0.135
  Overlap matrix
  | Array has  1029655 nonzero elements out of  1289825 elements
  | Sparsity factor is 0.202
  New size of hamiltonian matrix:     1115699

  Updating Kohn-Sham eigenvalues and eigenvectors using ELSI and the (modified) LAPACK eigensolver.
  Singularity check in k-point 24, task 0 (analysis for other k-points/tasks may follow below):
  Overlap matrix is not singular
  | Lowest and highest eigenvalues :  0.7054E-03,  0.7222E+01
  Finished singularity check of overlap matrix
  | Time :     0.091 s
  Starting LAPACK eigensolver
  Finished Cholesky decomposition
  | Time :     0.019 s
  Finished transformation to standard eigenproblem
  | Time :     0.021 s
  Finished solving standard eigenproblem
  | Time :     0.071 s
  Finished back-transformation of eigenvectors
  | Time :     0.009 s

  Obtaining occupation numbers and chemical potential using ELSI.
  | Chemical potential (Fermi level):    -4.59971143 eV
  Writing Kohn-Sham eigenvalues.
  K-point:       1 at    0.000000    0.000000    0.000000 (in units of recip. lattice)

  State    Occupation    Eigenvalue [Ha]    Eigenvalue [eV]
      1       2.00000        -913.279544       -24851.60083
      2       2.00000        -913.279540       -24851.60073
      3       2.00000        -913.279539       -24851.60070
      4       2.00000        -913.279516       -24851.60007
      5       2.00000        -466.350274       -12690.03661
      6       2.00000        -466.350273       -12690.03659
      7       2.00000        -466.350262       -12690.03628
      8       2.00000        -466.350254       -12690.03607
      9       2.00000        -466.350253       -12690.03606
     10       2.00000        -466.350253       -12690.03605
     11       2.00000        -466.350253       -12690.03604
     12       2.00000        -466.350248       -12690.03590
     13       2.00000        -130.445129        -3549.59255
     14       2.00000        -130.445125        -3549.59245
     15       2.00000        -130.445124        -3549.59242
     16       2.00000        -130.445101        -3549.59179
     17       2.00000        -116.921537        -3181.59690
     18       2.00000        -116.921533        -3181.59680
     19       2.00000        -116.921532        -3181.59677
     20       2.00000        -116.921528        -3181.59666
     21       2.00000        -116.921524        -3181.59656
     22       2.00000        -116.921523        -3181.59652
     23       2.00000        -116.921509        -3181.59613
     24       2.00000        -116.921500        -3181.59589
     25       2.00000        -116.921473        -3181.59517
     26       2.00000        -116.921470        -3181.59507
     27       2.00000        -116.921469        -3181.59504
     28       2.00000        -116.921445        -3181.59441
     29       2.00000         -59.215487        -1611.33537
     30       2.00000         -59.215486        -1611.33535
     31       2.00000         -59.215474        -1611.33504
     32       2.00000         -59.215466        -1611.33482
     33       2.00000         -59.215466        -1611.33482
     34       2.00000         -59.215466        -1611.33481
     35       2.00000         -59.215465        -1611.33480
     36       2.00000         -59.215460        -1611.33465
     37       2.00000         -52.074004        -1417.00574
     38       2.00000         -52.074003        -1417.00572
     39       2.00000         -52.073992        -1417.00541
     40       2.00000         -52.073983        -1417.00519
     41       2.00000         -52.073983        -1417.00518
     42       2.00000         -52.073983        -1417.00518
     43       2.00000         -52.073982        -1417.00516
     44       2.00000         -52.073977        -1417.00502
     45       2.00000         -52.073977        -1417.00502
     46       2.00000         -52.073976        -1417.00499
     47       2.00000         -52.073965        -1417.00468
     48       2.00000         -52.073957        -1417.00447
     49       2.00000         -52.073957        -1417.00446
     50       2.00000         -52.073957        -1417.00446
     51       2.00000         -52.073956        -1417.00444
     52       2.00000         -52.073951        -1417.00430
     53       2.00000         -52.073930        -1417.00373
     54       2.00000         -52.073929        -1417.00370
     55       2.00000         -52.073918        -1417.00339
     56       2.00000         -52.073910        -1417.00318
     57       2.00000         -52.073910        -1417.00317
     58       2.00000         -52.073909        -1417.00317
     59       2.00000         -52.073909        -1417.00316
     60       2.00000         -52.073904        -1417.00301
     61       2.00000         -23.533325         -640.37437
     62       2.00000         -23.533322         -640.37426
     63       2.00000         -23.533320         -640.37422
     64       2.00000         -23.533295         -640.37355
     65       2.00000         -19.115123         -520.14895
     66       2.00000         -19.115119         -520.14886
     67       2.00000         -19.115118         -520.14882
     68       2.00000         -19.115092         -520.14813
     69       2.00000         -19.115035         -520.14657
     70       2.00000         -19.115031         -520.14645
     71       2.00000         -19.115029         -520.14641
     72       2.00000         -19.115004         -520.14574
     73       2.00000         -19.114493         -520.13182
     74       2.00000         -19.114489         -520.13172
     75       2.00000         -19.114488         -520.13169
     76       2.00000         -19.114464         -520.13103
     77       2.00000         -12.109930         -329.52797
     78       2.00000         -12.109926         -329.52787
     79       2.00000         -12.109925         -329.52783
     80       2.00000         -12.109900         -329.52714
     81       2.00000         -12.109895         -329.52700
     82       2.00000         -12.109891         -329.52689
     83       2.00000         -12.109889         -329.52685
     84       2.00000         -12.109864         -329.52617
     85       2.00000         -12.109545         -329.51750
     86       2.00000         -12.109542         -329.51740
     87       2.00000         -12.109541         -329.51737
     88       2.00000         -12.109516         -329.51670
     89       2.00000         -12.109489         -329.51597
     90       2.00000         -12.109485         -329.51586
     91       2.00000         -12.109484         -329.51582
     92       2.00000         -12.109460         -329.51516
     93       2.00000         -12.109405         -329.51367
     94       2.00000         -12.109401         -329.51356
     95       2.00000         -12.109400         -329.51353
     96       2.00000         -12.109375         -329.51287
     97       2.00000          -7.861788         -213.93015
     98       2.00000          -7.861787         -213.93012
     99       2.00000          -7.861773         -213.92973
    100       2.00000          -7.861767         -213.92957
    101       2.00000          -7.861766         -213.92953
    102       2.00000          -7.861765         -213.92951
    103       2.00000          -7.861761         -213.92941
    104       2.00000          -7.861757         -213.92929
    105       2.00000          -5.636207         -153.36900
    106       2.00000          -5.636207         -153.36899
    107       2.00000          -5.636193         -153.36863
    108       2.00000          -5.636184         -153.36836
    109       2.00000          -5.636183         -153.36834
    110       2.00000          -5.636183         -153.36834
    111       2.00000          -5.636181         -153.36828
    112       2.00000          -5.636176         -153.36815
    113       2.00000          -5.635941         -153.36175
    114       2.00000          -5.635940         -153.36173
    115       2.00000          -5.635924         -153.36131
    116       2.00000          -5.635920         -153.36118
    117       2.00000          -5.635871         -153.35985
    118       2.00000          -5.635868         -153.35976
    119       2.00000          -5.635856         -153.35944
    120       2.00000          -5.635851         -153.35931
    121       2.00000          -5.635281         -153.34379
    122       2.00000          -5.635279         -153.34373
    123       2.00000          -5.635266         -153.34340
    124       2.00000          -5.635260         -153.34323
    125       2.00000          -5.635259         -153.34321
    126       2.00000          -5.635259         -153.34320
    127       2.00000          -5.635257         -153.34315
    128       2.00000          -5.635253         -153.34302
    129       2.00000          -3.274002          -89.09013
    130       2.00000          -3.273996          -89.08998
    131       2.00000          -3.273994          -89.08992
    132       2.00000          -3.273958          -89.08894
    133       2.00000          -2.020349          -54.97651
    134       2.00000          -2.020338          -54.97620
    135       2.00000          -2.020320          -54.97570
    136       2.00000          -2.020279          -54.97459
    137       2.00000          -2.019339          -54.94901
    138       2.00000          -2.019321          -54.94852
    139       2.00000          -2.019295          -54.94781
    140       2.00000          -2.019259          -54.94684
    141       2.00000          -2.013042          -54.77766
    142       2.00000          -2.013036          -54.77749
    143       2.00000          -2.013035          -54.77747
    144       2.00000          -2.013003          -54.77659
    145       2.00000          -1.969192          -53.58445
    146       2.00000          -1.969171          -53.58386
    147       2.00000          -1.969165          -53.58370
    148       2.00000          -1.969143          -53.58310
    149       2.00000          -1.968163          -53.55644
    150       2.00000          -1.968143          -53.55590
    151       2.00000          -1.968142          -53.55588
    152       2.00000          -1.968123          -53.55536
    153       2.00000          -1.967758          -53.54541
    154       2.00000          -1.967742          -53.54497
    155       2.00000          -1.967739          -53.54490
    156       2.00000          -1.967724          -53.54448
    157       2.00000          -1.967604          -53.54122
    158       2.00000          -1.967594          -53.54095
    159       2.00000          -1.967586          -53.54075
    160       2.00000          -1.967576          -53.54046
    161       2.00000          -1.967330          -53.53377
    162       2.00000          -1.967313          -53.53330
    163       2.00000          -1.967304          -53.53307
    164       2.00000          -1.967287          -53.53259
    165       2.00000          -1.967272          -53.53219
    166       2.00000          -1.967254          -53.53170
    167       2.00000          -1.967249          -53.53157
    168       2.00000          -1.967233          -53.53113
    169       2.00000          -1.967206          -53.53041
    170       2.00000          -1.967195          -53.53009
    171       2.00000          -1.967191          -53.53000
    172       2.00000          -1.967187          -53.52989
    173       2.00000          -1.967183          -53.52976
    174       2.00000          -1.967176          -53.52959
    175       2.00000          -1.967173          -53.52950
    176       2.00000          -1.967167          -53.52933
    177       2.00000          -1.966649          -53.51523
    178       2.00000          -1.966638          -53.51494
    179       2.00000          -1.966634          -53.51483
    180       2.00000          -1.966622          -53.51452
    181       2.00000          -1.966302          -53.50579
    182       2.00000          -1.966295          -53.50561
    183       2.00000          -1.966284          -53.50531
    184       2.00000          -1.966279          -53.50517
    185       2.00000          -0.759161          -20.65783
    186       2.00000          -0.740695          -20.15532
    187       2.00000          -0.719992          -19.59197
    188       2.00000          -0.718368          -19.54778
    189       2.00000          -0.652900          -17.76630
    190       2.00000          -0.640855          -17.43855
    191       2.00000          -0.639354          -17.39770
    192       2.00000          -0.627784          -17.08287
    193       2.00000          -0.418612          -11.39102
    194       2.00000          -0.410713          -11.17607
    195       2.00000          -0.389085          -10.58753
    196       2.00000          -0.376771          -10.25246
    197       2.00000          -0.370517          -10.08229
    198       2.00000          -0.368838          -10.03660
    199       2.00000          -0.366824           -9.98178
    200       2.00000          -0.366332           -9.96841
    201       2.00000          -0.365099           -9.93484
    202       2.00000          -0.363297           -9.88582
    203       2.00000          -0.360899           -9.82057
    204       2.00000          -0.351711           -9.57055
    205       2.00000          -0.341569           -9.29457
    206       2.00000          -0.330616           -8.99651
    207       2.00000          -0.323858           -8.81261
    208       2.00000          -0.316203           -8.60431
    209       2.00000          -0.315808           -8.59358
    210       2.00000          -0.306126           -8.33012
    211       2.00000          -0.288676           -7.85528
    212       2.00000          -0.286372           -7.79258
    213       2.00000          -0.284913           -7.75289
    214       2.00000          -0.280195           -7.62449
    215       2.00000          -0.279052           -7.59339
    216       2.00000          -0.277296           -7.54561
    217       2.00000          -0.276332           -7.51938
    218       2.00000          -0.275401           -7.49405
    219       2.00000          -0.273694           -7.44760
    220       2.00000          -0.270444           -7.35916
    221       2.00000          -0.265148           -7.21503
    222       2.00000          -0.263391           -7.16723
    223       2.00000          -0.263050           -7.15795
    224       2.00000          -0.257429           -7.00500
    225       2.00000          -0.224713           -6.11476
    226       2.00000          -0.215625           -5.86746
    227       2.00000          -0.213331           -5.80504
    228       0.00000          -0.166143           -4.52098
    229       0.00000          -0.152599           -4.15243
    230       0.00000          -0.135416           -3.68485
    231       0.00000          -0.130011           -3.53778
    232       0.00000          -0.129603           -3.52667
    233       0.00000          -0.126508           -3.44246
    234       0.00000          -0.116221           -3.16254
    235       0.00000          -0.114811           -3.12418
    236       0.00000          -0.081893           -2.22843
    237       0.00000          -0.037410           -1.01797
    238       0.00000          -0.031240           -0.85009
    239       0.00000          -0.004383           -0.11928
    240       0.00000           0.020142            0.54810
    241       0.00000           0.024998            0.68024
    242       0.00000           0.026001            0.70752
    243       0.00000           0.056445            1.53595
    244       0.00000           0.089111            2.42484
    245       0.00000           0.103654            2.82056
    246       0.00000           0.111378            3.03076
    247       0.00000           0.119170            3.24278
    248       0.00000           0.122189            3.32494
    249       0.00000           0.125608            3.41796
    250       0.00000           0.126433            3.44042
    251       0.00000           0.136777            3.72190
    252       0.00000           0.151416            4.12023
    253       0.00000           0.161543            4.39581
    254       0.00000           0.172389            4.69095
    255       0.00000           0.177091            4.81889
    256       0.00000           0.189877            5.16682
    257       0.00000           0.191218            5.20331
    258       0.00000           0.197304            5.36891
    259       0.00000           0.219591            5.97538
    260       0.00000           0.232482            6.32615
    261       0.00000           0.247799            6.74296
    262       0.00000           0.257815            7.01551
    263       0.00000           0.266918            7.26322
    264       0.00000           0.280944            7.64489
    265       0.00000           0.281429            7.65808
[...]
  |                x                y                z                |
  |                                                                   |
  |  x        -0.00013455       0.00000628       0.00001721           |
  |  y         0.00000628       0.00016089      -0.00002957           |
  |  z         0.00001721      -0.00002957      -0.00011829           |
  |                                                                   |
  |  Pressure:       0.00003065   [eV/A**3]                           |
  |                                                                   |
  +-------------------------------------------------------------------+

 * Warning: Stress tensor is anisotropic. Be aware that pressure is an isotropic quantity.


  Leaving Libmbd.

  Timings for VdW correction (Tkatchenko-Scheffler 2009 or later):
  | CPU time:        3.674 s, Wall clock time:        3.675 s.
  Removing unitary transformations (pure translations, rotations) from forces on atoms.
  Atomic forces before filtering:
  | Net force on center of mass :  -0.299132E-04 -0.283781E-04  0.938922E-04 eV/A
  Atomic forces after filtering:
  | Net force on center of mass :   0.104535E-17  0.696899E-18 -0.696899E-18 eV/A

  Energy and forces in a compact form:
  | Total energy uncorrected      :         -0.108791111521982E+07 eV
  | Total energy corrected        :         -0.108791111647527E+07 eV  <-- do not rely on this value for anything but (periodic) metals
  | Electronic free energy        :         -0.108791111773072E+07 eV
  Total atomic forces (unitary forces cleaned) [eV/Ang]:
  |    1         -0.157515099669749E-02          0.252132529700712E-02         -0.154863230299210E-02
  |    2         -0.226145876958451E-02         -0.159288097799421E-02         -0.540804971908458E-03
  |    3          0.315585009887690E-03          0.292969376194202E-02         -0.144305799223077E-02
  |    4         -0.295182218278929E-02         -0.114493266590204E-03          0.717890150001006E-04
  |    5          0.460076457295707E-02         -0.244246945149760E-02         -0.270456807020296E-02
  |    6          0.162947921178784E-02         -0.624452620784705E-02         -0.788219146725193E-03
  |    7          0.308376759281521E-02         -0.130698475544047E-02          0.285449902628602E-02
  |    8         -0.587889448346276E-03         -0.360845013191199E-02          0.534360851867112E-03
  |    9         -0.857378890218535E-03          0.432673008414657E-02          0.153174540228833E-02
  |   10         -0.198478029406053E-02          0.399344658322066E-02          0.442168821535713E-02
  |   11         -0.144558215702654E-02          0.100473087711481E-02         -0.519828111709278E-02
  |   12          0.203446635127537E-02          0.533878187850334E-03          0.280948109035356E-02

  ------------------------------------ 
  Start decomposition of the XC Energy 
  ------------------------------------ 
  X and C from original XC functional choice 
  Hartree-Fock Energy :          0.000000000 Ha              0.000000000 eV
  X Energy            :      -1261.088337886 Ha         -34315.959650680 eV
  C Energy            :        -23.236475274 Ha           -632.296663100 eV
  Total XC Energy     :      -1284.324813160 Ha         -34948.256313780 eV
  ------------------------------------ 
  LDA X and C from self-consistent density 
  X Energy LDA        :      -1197.517629691 Ha         -32586.112667051 eV
  C Energy LDA        :        -42.068149883 Ha          -1144.732601678 eV
  ------------------------------------ 
  End decomposition of the XC Energy 
  ------------------------------------ 

------------------------------------------------------------
  Relaxation / MD: End force evaluation.       :  max(cpu_time)    wall_clock(cpu1)
  | Time for this force evaluation             :      316.093 s         316.446 s

------------------------------------------------------------
  Geometry optimization: Attempting to predict improved coordinates.

  +-------------------------------------------------------------------+
  | Generalized derivatives on lattice vectors [eV/A]                 |
  +-------------------------------------------------------------------+
  |lattice_vector      -0.00602946       0.00028129       0.00077113  |
  |lattice_vector       0.00027605       0.00707567      -0.00130049  |
  |lattice_vector       0.00059816      -0.00102793      -0.00411181  |
  +-------------------------------------------------------------------+
  | Forces on lattice vectors cleaned from atomic contributions [eV/A]|
  +-------------------------------------------------------------------+
  |lattice_vector       0.00602946      -0.00028129      -0.00077113  |
  |lattice_vector      -0.00027605      -0.00707567       0.00130049  |
  |lattice_vector      -0.00059816       0.00102793       0.00411181  |
  +-------------------------------------------------------------------+
  Symmetrized total atomic cartesian forces [eV/Ang]:
  |   1    -0.1575150997E-02     0.2521325297E-02    -0.1548632303E-02
  |   2    -0.2261458770E-02    -0.1592880978E-02    -0.5408049719E-03
  |   3     0.3155850099E-03     0.2929693762E-02    -0.1443057992E-02
  |   4    -0.2951822183E-02    -0.1144932666E-03     0.7178901500E-04
  |   5     0.4600764573E-02    -0.2442469451E-02    -0.2704568070E-02
  |   6     0.1629479212E-02    -0.6244526208E-02    -0.7882191467E-03
  |   7     0.3083767593E-02    -0.1306984755E-02     0.2854499026E-02
  |   8    -0.5878894483E-03    -0.3608450132E-02     0.5343608519E-03
  |   9    -0.8573788902E-03     0.4326730084E-02     0.1531745402E-02
  |  10    -0.1984780294E-02     0.3993446583E-02     0.4421688215E-02
  |  11    -0.1445582157E-02     0.1004730877E-02    -0.5198281117E-02
  |  12     0.2034466351E-02     0.5338781879E-03     0.2809481090E-02
  +-------------------------------------------------------------------+
  | Symmetrized forces on lattice vectors cleaned from symmetrized
  | atomic contributions [eV/A]|
  +-------------------------------------------------------------------+
  |lattice_vector       0.00602946       0.00000000       0.00000000  |
  |lattice_vector       0.00000000      -0.00707567       0.00000000  |
  |lattice_vector       0.00000000       0.00000000       0.00411181  |
  +-------------------------------------------------------------------+
  Removing unitary transformations (pure translations, rotations) from forces on atoms.
  Atomic forces before filtering:
  | Net force on center of mass :   0.104535E-17  0.696899E-18 -0.696899E-18 eV/A
  Atomic forces after filtering:
  | Net force on center of mass :   0.104535E-17 -0.958236E-18 -0.696899E-18 eV/A
  Net remaining forces (excluding translations, rotations) in present geometry:
  || Forces on atoms   || =   0.624453E-02 eV/A.
  || Forces on lattice || =   0.707567E-02 eV/A^3.
  Maximum force component is  0.707567E-02 eV/A.
  Present geometry is converged.

  Symmetry-reduced parameters:
  | atomic   1          0.501753775650605E+00
  | atomic   2          0.168043588535798E-02
  | atomic   3          0.166967095065295E-02
  | atomic   4          0.171625942695776E-02
  | atomic   5          0.175130541191299E-02
  | atomic   6          0.501779091630851E+00
  | atomic   7          0.169165333332834E-02
  | atomic   8          0.501667833617451E+00
  | atomic   9          0.163715959488457E-02
  | atomic  10          0.501776554476713E+00
  | atomic  11          0.501699938447057E+00
  | atomic  12          0.501815111899813E+00
  | atomic  13          0.613680529373859E+00
  | atomic  14          0.120165302171253E+00
  | atomic  15          0.405120585654805E+00
  | atomic  16          0.889649245299121E+00
  | atomic  17          0.883341610002263E+00
  | atomic  18          0.904962626291972E+00
  | atomic  19          0.113736615824194E+00
  | atomic  20          0.383320280962534E+00
  | atomic  21          0.598417378385075E+00
  | atomic  22          0.389656085734637E+00
  | atomic  23          0.620151622504192E+00
  | atomic  24          0.983457004090914E-01
  | atomic  25          0.389655436095689E+00
  | atomic  26          0.883209847781906E+00
  | atomic  27          0.598424980451977E+00
  | atomic  28          0.113813658922585E+00
  | atomic  29          0.120067868270076E+00
  | atomic  30          0.982871068553443E-01
  | atomic  31          0.889691652665518E+00
  | atomic  32          0.620169767497516E+00
  | atomic  33          0.405124364672184E+00
  | atomic  34          0.613691306730919E+00
  | atomic  35          0.383286948380466E+00
  | atomic  36          0.904929004866407E+00
  | lattice  1          0.584063067165139E+01
  | lattice  2          0.595153013276627E+01
  | lattice  3          0.752963931002689E+01
  Symmetry-reduced forces:
  | atomic   1         -0.919987522379362E-02
  | atomic   2          0.150057434796438E-01
  | atomic   3         -0.116606426653868E-01
  | atomic   4         -0.132083454523103E-01
  | atomic   5         -0.948007913844273E-02
  | atomic   6         -0.407206637553991E-02
  | atomic   7          0.184321548826345E-02
  | atomic   8          0.174361607039753E-01
  | atomic   9         -0.108657061849493E-01
  | atomic  10         -0.172405031780601E-01
  | atomic  11         -0.681410126110444E-03
  | atomic  12          0.540545389372867E-03
  | atomic  13          0.268713666778602E-01
  | atomic  14         -0.145364305389491E-01
  | atomic  15         -0.203644220580438E-01
  | atomic  16          0.951718626318637E-02
  | atomic  17         -0.371644858908504E-01
  | atomic  18         -0.593500587209786E-02
  | atomic  19          0.180111475868411E-01
  | atomic  20         -0.777855915507010E-02
  | atomic  21          0.214933480787567E-01
  | atomic  22         -0.343364514355148E-02
  | atomic  23         -0.214757996926586E-01
  | atomic  24          0.402354447595806E-02
  | atomic  25         -0.500763344343680E-02
  | atomic  26          0.257506644721447E-01
  | atomic  27          0.115334903940231E-01
  | atomic  28         -0.115923686619792E-01
  | atomic  29          0.237671176736303E-01
  | atomic  30          0.332937174030357E-01
  | atomic  31         -0.844311148472117E-02
  | atomic  32          0.597968609046950E-02
  | atomic  33         -0.391411818438322E-01
  | atomic  34          0.118825665717016E-01
  | atomic  35          0.317739212221792E-02
  | atomic  36          0.211543792587034E-01
  | lattice  1          0.602946357898364E-02
  | lattice  2         -0.707566856540210E-02
  | lattice  3          0.411181035466914E-02
------------------------------------------------------------
  Final atomic structure:
                         x [A]             y [A]             z [A]
  lattice_vector         5.84063067        0.00000000        0.00000000
  lattice_vector         0.00000000        5.95153013        0.00000000
  lattice_vector         0.00000000        0.00000000        7.52963931

            atom        -2.91007218        0.01000116        0.01257202  Pd
            atom         0.01002404        0.01042295       -3.75142374  Pd
            atom         0.00988032       -2.96583890        0.01232722  Pd
            atom        -2.90993914       -2.96564783       -3.75115252  Pd
            atom        -2.25634935        0.71516742        3.05041189  Se
            atom        -0.64451800       -0.69429592       -0.71559714  Se
            atom         0.66429357        2.28134220       -3.02377229  Se
            atom         2.27583729       -2.26067906        0.74050765  Se
            atom         2.27583349       -0.69508011       -3.02371505  Se
            atom         0.66474355        0.71458754        0.74006646  Se
            atom        -0.64427032       -2.26057107        3.05044034  Se
            atom        -2.25628640        2.28114382       -0.71585030  Se

  Fractional coordinates:
                         L1                L2                L3
       atom_frac        -0.49824622        0.00168044        0.00166967  Pd
       atom_frac         0.00171626        0.00175131       -0.49822091  Pd
       atom_frac         0.00169165       -0.49833217        0.00163716  Pd
       atom_frac        -0.49822345       -0.49830006       -0.49818489  Pd
       atom_frac        -0.38631947        0.12016530        0.40512059  Se
       atom_frac        -0.11035075       -0.11665839       -0.09503737  Se
       atom_frac         0.11373662        0.38332028       -0.40158262  Se
       atom_frac         0.38965609       -0.37984838        0.09834570  Se
       atom_frac         0.38965544       -0.11679015       -0.40157502  Se
       atom_frac         0.11381366        0.12006787        0.09828711  Se
       atom_frac        -0.11030835       -0.37983023        0.40512436  Se
       atom_frac        -0.38630869        0.38328695       -0.09507100  Se
------------------------------------------------------------

------------------------------------------------------------------------------
  Final output of selected total energy values:

  The following output summarizes some interesting total energy values
  at the end of a run (AFTER all relaxation, molecular dynamics, etc.).

  | Total energy of the DFT / Hartree-Fock s.c.f. calculation      :       -1087911.115219822 eV
  | Final zero-broadening corrected energy (caution - metals only) :       -1087911.116475271 eV
  | For reference only, the value of 1 Hartree used in FHI-aims is :             27.211384500 eV
  | For reference only, the overall average (free atom contribution
  | + realspace contribution) of the electrostatic potential after
  | s.c.f. convergence is                                          :            -16.928053473 eV

  Before relying on these values, please be sure to understand exactly which
  total energy value is referred to by a given number. Different objects may
  all carry the same name 'total energy'. Definitions:

  Total energy of the DFT / Hartree-Fock s.c.f. calculation:
  | Note that this energy does not include ANY quantities calculated after the
  | s.c.f. cycle, in particular not ANY RPA, MP2, etc. many-body perturbation terms.

  Final zero-broadening corrected energy:
  | For metallic systems only, a broadening of the occupation numbers at the Fermi
  | level can be extrapolated back to zero broadening by an electron-gas inspired
  | formula. For all systems that are not real metals, this value can be
  | meaningless and should be avoided.

------------------------------------------------------------------------------
  Methods described in the following list of references were used in this FHI-aims run.
  If you publish the results, please make sure to cite these reference if they apply.
  FHI-aims is an academic code, and for our developers (often, Ph.D. students
  and postdocs), scientific credit in the community is essential.
  Thank you for helping us!

  For any use of FHI-aims, please cite:

    Volker Blum, Ralf Gehrke, Felix Hanke, Paula Havu, Ville Havu,
    Xinguo Ren, Karsten Reuter, and Matthias Scheffler
    'Ab initio molecular simulations with numeric atom-centered orbitals'
    Computer Physics Communications 180, 2175-2196 (2009)
    http://dx.doi.org/10.1016/j.cpc.2009.06.022


  For the analytical stress tensor used in your run, please cite:

    Franz Knuth, Christian Carbogno, Viktor Atalla, Volker Blum, Matthias Scheffler
    'All-electron formalism for total energy strain derivatives and
    stress tensor components for numeric atom-centered orbitals'
    Computer Physics Communications 190, 33-50 (2015).
    http://dx.doi.org/10.1016/j.cpc.2015.01.003


  The provided symmetry information was generated with SPGlib:

    Atsushi Togo, Yusuke Seto, Dimitar Pashov
    SPGlib 1.7.3 obtained from http://spglib.sourceforge.net
    Copyright (C) 2008 Atsushi Togo


  The ELSI infrastructure was used in your run to solve the Kohn-Sham electronic structure.
  Please check out http://elsi-interchange.org to learn more.
  If scalability is important for your project, please acknowledge ELSI by citing:

    V. W-z. Yu, F. Corsetti, A. Garcia, W. P. Huhn, M. Jacquelin, W. Jia,
    B. Lange, L. Lin, J. Lu, W. Mi, A. Seifitokaldani, A. Vazquez-Mayagoitia,
    C. Yang, H. Yang, and V. Blum
    'ELSI: A unified software interface for Kohn-Sham electronic structure solvers'
    Computer Physics Communications 222, 267-285 (2018).
    http://dx.doi.org/10.1016/j.cpc.2017.09.007


  For the real-space grid partitioning and parallelization used in this calculation, please cite:

    Ville Havu, Volker Blum, Paula Havu, and Matthias Scheffler,
    'Efficient O(N) integration for all-electron electronic structure calculation'
    'using numerically tabulated basis functions'
    Journal of Computational Physics 228, 8367-8379 (2009).
    http://dx.doi.org/10.1016/j.jcp.2009.08.008

  Of course, there are many other important community references, e.g., those cited in the
  above references. Our list is limited to references that describe implementations in the
  FHI-aims code. The reason is purely practical (length of this list) - please credit others as well.

------------------------------------------------------------
          Leaving FHI-aims.
          Date     :  20200420, Time     :  210459.868

          Computational steps:
          | Number of self-consistency cycles          :           85
          | Number of SCF (re)initializations          :            4
          | Number of relaxation steps                 :            3

          Detailed time accounting                     :  max(cpu_time)    wall_clock(cpu1)
          | Total time                                 :     1460.266 s        1461.081 s
          | Preparation time                           :        0.558 s           0.659 s
          | Boundary condition initalization           :        0.474 s           0.475 s
          | Grid partitioning                          :        1.384 s           1.383 s
          | Preloading free-atom quantities on grid    :        3.484 s           3.484 s
          | Free-atom superposition energy             :        0.572 s           0.573 s
          | Total time for integrations                :      238.238 s         238.238 s
          | Total time for solution of K.-S. equations :       51.232 s          51.279 s
          | Total time for EV reorthonormalization     :        0.595 s           0.461 s
          | Total time for density & force components  :      897.970 s         897.989 s
          | Total time for mixing & preconditioning    :       57.813 s          57.833 s
          | Total time for Hartree multipole update    :        0.536 s           0.528 s
          | Total time for Hartree multipole sum       :      190.527 s         190.533 s
          | Total time for total energy evaluation     :        0.077 s           0.089 s
          | Total time for scaled ZORA corrections     :        0.000 s           0.000 s
          | Total time for vdW correction              :       14.706 s          14.717 s

          Partial memory accounting:
          | Residual value for overall tracked memory usage across tasks:     0.000000 MB (should be 0.000000 MB)
          | Peak values for overall tracked memory usage:
          |   Minimum:       58.723 MB (on task  0 after allocating d_wave)
          |   Maximum:       64.224 MB (on task  6 after allocating d_wave)
          |   Average:       62.716 MB
          | Largest tracked array allocation:
          |   Minimum:        9.841 MB (overlap_matrix on task  0)
          |   Maximum:        9.841 MB (overlap_matrix on task  0)
          |   Average:        9.841 MB
          Note:  These values currently only include a subset of arrays which are explicitly tracked.
          The "true" memory usage will be greater.

          Have a nice day.
------------------------------------------------------------
