------------------------------------------------------------
          Invoking FHI-aims ...

          When using FHI-aims, please cite the following reference:

          Volker Blum, Ralf Gehrke, Felix Hanke, Paula Havu,
          Ville Havu, Xinguo Ren, Karsten Reuter, and Matthias Scheffler,
          'Ab Initio Molecular Simulations with Numeric Atom-Centered Orbitals',
          Computer Physics Communications 180, 2175-2196 (2009)

          For any questions about FHI-aims, please visit the aimsclub website
          with its forums and wiki. Contributions to both the forums and the
          wiki are warmly encouraged - they are for you, and everyone is welcome there.

------------------------------------------------------------



  Date     :  20200420, Time     :  205308.269
  Time zero on CPU 1             :   0.107101000000000E+00  s.
  Internal wall clock time zero  :           356647988.269  s.

  FHI-aims created a unique identifier for this run for later identification
  aims_uuid : E10D61E4-0B93-48ED-ACBD-2E392343D2FE

  Build configuration of the current instance of FHI-aims
  -------------------------------------------------------
  FHI-aims version      : 200112
  Commit number         : 23daeca3f
  CMake host system     : Linux-3.10.0-693.21.1.el7.x86_64
  CMake version         : 3.13.3
  Fortran compiler      : /sw/installed/impi/2018.4.274-iccifort-2019.1.144-GCC-8.2.0-2.31.1/bin64/mpiifort (Intel) version 19.0.0.20181018
  Fortran compiler flags: -O3 -ip -fp-model precise
  C compiler            : /sw/installed/impi/2018.4.274-iccifort-2019.1.144-GCC-8.2.0-2.31.1/bin64/mpiicc (Intel) version 19.0.0.20181018
  C compiler flags      : -O3 -ip -fp-model precise
  Architecture          :
  Using MPI
  Using Scalapack
  Using C files
  Using LibXC
  Using SPGlib
  Using i-PI
  Using RLSY
  Linking against: /sw/installed/imkl/2019.1.144-iimpi-2019a/mkl/lib/intel64/libmkl_intel_lp64.so
                   /sw/installed/imkl/2019.1.144-iimpi-2019a/mkl/lib/intel64/libmkl_sequential.so
                   /sw/installed/imkl/2019.1.144-iimpi-2019a/mkl/lib/intel64/libmkl_core.so
                   /sw/installed/imkl/2019.1.144-iimpi-2019a/mkl/lib/intel64/libmkl_blacs_intelmpi_lp64.so
                   /sw/installed/imkl/2019.1.144-iimpi-2019a/mkl/lib/intel64/libmkl_scalapack_lp64.so

  Using       24 parallel tasks.
  Task        0 on host taurusi6281.taurus.hrsk.tu-dresden.de reporting.
  Task        1 on host taurusi6281.taurus.hrsk.tu-dresden.de reporting.
  Task        2 on host taurusi6281.taurus.hrsk.tu-dresden.de reporting.
  Task        3 on host taurusi6281.taurus.hrsk.tu-dresden.de reporting.
  Task        4 on host taurusi6281.taurus.hrsk.tu-dresden.de reporting.
  Task        5 on host taurusi6281.taurus.hrsk.tu-dresden.de reporting.
  Task        6 on host taurusi6281.taurus.hrsk.tu-dresden.de reporting.
  Task        7 on host taurusi6281.taurus.hrsk.tu-dresden.de reporting.
  Task        8 on host taurusi6281.taurus.hrsk.tu-dresden.de reporting.
  Task        9 on host taurusi6281.taurus.hrsk.tu-dresden.de reporting.
  Task       10 on host taurusi6281.taurus.hrsk.tu-dresden.de reporting.
  Task       11 on host taurusi6281.taurus.hrsk.tu-dresden.de reporting.
  Task       12 on host taurusi6281.taurus.hrsk.tu-dresden.de reporting.
  Task       13 on host taurusi6281.taurus.hrsk.tu-dresden.de reporting.
  Task       14 on host taurusi6281.taurus.hrsk.tu-dresden.de reporting.
  Task       15 on host taurusi6281.taurus.hrsk.tu-dresden.de reporting.
  Task       16 on host taurusi6281.taurus.hrsk.tu-dresden.de reporting.
  Task       17 on host taurusi6281.taurus.hrsk.tu-dresden.de reporting.
  Task       18 on host taurusi6281.taurus.hrsk.tu-dresden.de reporting.
  Task       19 on host taurusi6281.taurus.hrsk.tu-dresden.de reporting.
  Task       20 on host taurusi6281.taurus.hrsk.tu-dresden.de reporting.
  Task       21 on host taurusi6281.taurus.hrsk.tu-dresden.de reporting.
  Task       22 on host taurusi6281.taurus.hrsk.tu-dresden.de reporting.
  Task       23 on host taurusi6281.taurus.hrsk.tu-dresden.de reporting.

  Performing system and environment tests:
  | Environment variable OMP_NUM_THREADS correctly set to 1.
  | Maximum stacksize for task 0: unlimited
  | Maximum stacksize for task 1: unlimited
  | Maximum stacksize for task 2: unlimited
  | Maximum stacksize for task 3: unlimited
  | Maximum stacksize for task 4: unlimited
  | Maximum stacksize for task 5: unlimited
  | Maximum stacksize for task 6: unlimited
  | Maximum stacksize for task 7: unlimited
  | Maximum stacksize for task 8: unlimited
  | Maximum stacksize for task 9: unlimited
  | Maximum stacksize for task 10: unlimited
  | Maximum stacksize for task 11: unlimited
  | Maximum stacksize for task 12: unlimited
  | Maximum stacksize for task 13: unlimited
  | Maximum stacksize for task 14: unlimited
  | Maximum stacksize for task 15: unlimited
  | Maximum stacksize for task 16: unlimited
  | Maximum stacksize for task 17: unlimited
  | Maximum stacksize for task 18: unlimited
  | Maximum stacksize for task 19: unlimited
  | Maximum stacksize for task 20: unlimited
  | Maximum stacksize for task 21: unlimited
  | Maximum stacksize for task 22: unlimited
  | Maximum stacksize for task 23: unlimited
  | Current stacksize for task 0: unlimited
  | Current stacksize for task 1: unlimited
  | Current stacksize for task 2: unlimited
  | Current stacksize for task 3: unlimited
  | Current stacksize for task 4: unlimited
  | Current stacksize for task 5: unlimited
  | Current stacksize for task 6: unlimited
  | Current stacksize for task 7: unlimited
  | Current stacksize for task 8: unlimited
  | Current stacksize for task 9: unlimited
  | Current stacksize for task 10: unlimited
  | Current stacksize for task 11: unlimited
  | Current stacksize for task 12: unlimited
  | Current stacksize for task 13: unlimited
  | Current stacksize for task 14: unlimited
  | Current stacksize for task 15: unlimited
  | Current stacksize for task 16: unlimited
  | Current stacksize for task 17: unlimited
  | Current stacksize for task 18: unlimited
  | Current stacksize for task 19: unlimited
  | Current stacksize for task 20: unlimited
  | Current stacksize for task 21: unlimited
  | Current stacksize for task 22: unlimited
  | Current stacksize for task 23: unlimited
  | Checking for scalapack...
  | Testing pdtran()...
  | All pdtran() tests passed.

  Obtaining array dimensions for all initial allocations:
  
  -----------------------------------------------------------------------
  Parsing control.in (first pass over file, find array dimensions only).
  The contents of control.in will be repeated verbatim below
  unless switched off by setting 'verbatim_writeout .false.' .
  in the first line of control.in .
  -----------------------------------------------------------------------
  
  #===============================================================================
  # FHI-aims file: ./control.in
  # Created using the Atomic Simulation Environment (ASE)
  # Thu Apr  2 11:27:09 2020
  #===============================================================================
  xc                                 pbe
  # include_spin_orbit
  # vdw_correction_hirshfeld
  many_body_dispersion
  spin                               none
  k_grid 	 	 28 28 23
  relativistic                       atomic_zora scalar
  energy_tolerance 1e-2
  harmonic_length_scale  0.015
  ### SCF settings
  adjust_scf 	 always 	 3
  # frozen_core_scf 	 .true.
  # charge_mix_param  0.05
  # occupation_type 	 gaussian 	 0.01
  # sc_accuracy_eev   1E-3 	 	 # sum of eigenvalues convergence
  # sc_accuracy_etot  1E-6 	 	 # total energy convergence
  # sc_accuracy_rho   1E-3 	 	 # electron density convergence
  # elsi_restart 	 read_and_write 	 1000
  ### geometry optimisation section
  relax_geometry 	 bfgs 	 1E-2
  relax_unit_cell 	 full
  #===============================================================================
  
  ################################################################################
  #
  #  FHI-aims code project
  # Volker Blum, Fritz Haber Institute Berlin, 2009
  #
  #  Suggested "tight" defaults for Pd atom (to be pasted into control.in file)
  #
  ################################################################################
    species        Pd
  #     global species definitions
      nucleus             46
      mass                106.42
  #
      l_hartree           6
  #
      cut_pot             4.0  2.0  1.0
      basis_dep_cutoff    1e-4
  #
      radial_base         62 7.0
      radial_multiplier   2
      angular_grids specified
        division   0.3627   50
        division   0.7349  110
        division   1.0624  194
        division   1.2496  302
        division   1.6740  434
  #      division   2.0126  590
  #      division   2.0830  770
  #      division   2.7936 1202
  #       outer_grid  974
        outer_grid  434
  ################################################################################
  #
  #  Definition of "minimal" basis
  #
  ################################################################################
  #     valence basis states
      valence      5  s   1.
      valence      4  p   6.
      valence      4  d   9.
  #     ion occupancy
      ion_occ     5  s   0.
      ion_occ     4  p   6.
      ion_occ     4  d   8.
  ################################################################################
  #
  #  Suggested additional basis functions. For production calculations,
  #  uncomment them one after another (the most important basis functions are
  #  listed first).
  #
  #  Constructed for dimers: 2.0 A, 2.275 A, 2.75 A, 3.75 A
  #
  ################################################################################
  #  "First tier" - max. impr. -120.76  meV, min. impr. -5.71 meV
       ionic 5 p auto
       hydro 4 f 8
       hydro 5 g 10
       hydro 3 s 2.6
       hydro 3 d 2.5
  #  "Second tier" - max. impr. -5.00  meV, min. impr. -0.62 meV
  #     hydro 5 f 17.2
  #     hydro 6 h 14
  #     hydro 4 d 4
  #     hydro 5 f 7.6
  #     hydro 3 p 3.3
  #     hydro 4 s 9.4
  #  "Third tier" - max. impr. -0.54  meV, min. impr. -0.14 meV
  #     hydro 4 f 20
  #     hydro 5 g 12.8
  #     hydro 5 d 9.8
  #     hydro 6 h 15.2
  #     hydro 5 s 10
  #     hydro 6 p 9.8
  #  "Fourth tier" - max. impr. -0.15  meV, min. impr. -0.05 meV
  #     hydro 5 f 9.2
  #     hydro 2 s 5.6
  #     hydro 5 f 43.2
  #     hydro 5 d 13.2
  #     hydro 5 g 14
  #     hydro 4 p 4.7
  ################################################################################
  #
  #  FHI-aims code project
  # Volker Blum, Fritz Haber Institute Berlin, 2009
  #
  #  Suggested "tight" defaults for Se atom (to be pasted into control.in file)
  #
  ################################################################################
    species        Se
  #     global species definitions
      nucleus             34
      mass                78.96
  #
      l_hartree           6
  #
      cut_pot             4.0          2.0  1.0
      basis_dep_cutoff    1e-4
  #
      radial_base         55 7.0
      radial_multiplier   2
      angular_grids       specified
        division   0.0830  110
        division   0.1357  194
        division   0.7377  302
        division   0.8610  434
  #      division   0.9640  590
  #      division   1.0773  770
  #      division   2.5539  974
  #      outer_grid  974
        outer_grid  434
  ################################################################################
  #
  #  Definition of "minimal" basis
  #
  ################################################################################
  #     valence basis states
      valence      4  s   2.
      valence      4  p   4.
      valence      3  d  10.
  #     ion occupancy
      ion_occ      4  s   1.
      ion_occ      4  p   3.
      ion_occ      3  d  10.
  ################################################################################
  #
  #  Suggested additional basis functions. For production calculations,
  #  uncomment them one after another (the most important basis functions are
  #  listed first).
  #
  #  Constructed for dimers: 1.85 A, 2.15 A, 2.50 A, 3.00 A, 4.00 A
  #
  ################################################################################
  #  "First tier" - improvements: -336.21 meV to -36.85 meV
       hydro 3 d 4.3
       hydro 2 p 1.6
       hydro 4 f 7.2
       ionic 4 s auto
  #  "Second tier" - improvements: -14.39 meV to -1.49 meV
  #     hydro 5 g 10.4
  #     hydro 4 p 4.5
  #     hydro 4 d 6.2
  #     hydro 4 f 11.2
  #     hydro 1 s 0.65
  #     hydro 6 h 15.2
  #  "Third tier" - improvements: -0.46 meV and below
  #     hydro 5 g 14.4
  #     ionic 4 d auto
  #     hydro 4 f 22.4
  #     hydro 5 f 7.4
  #     hydro 5 p 8
  #     hydro 5 s 9.4
  #  "Fourth tier" - improvements: -0.12 meV and below
  #     hydro 5 d 11.6
  #     hydro 6 h 18
  #     hydro 4 p 4
  #     hydro 5 f 16
  #     hydro 4 s 3.9
  #
  #
  
  -----------------------------------------------------------------------
  Completed first pass over input file control.in .
  -----------------------------------------------------------------------
  
  
  -----------------------------------------------------------------------
  Parsing geometry.in (first pass over file, find array dimensions only).
  The contents of geometry.in will be repeated verbatim below
  unless switched off by setting 'verbatim_writeout .false.' .
  in the first line of geometry.in .
  -----------------------------------------------------------------------
  
  #
  # This is the geometry file that corresponds to the current relaxation step.
  # If you do not want this file to be written, set the "write_restart_geometry" flag to .false.
  #  aims_uuid : 5F783D0E-2C93-48B0-A1F8-F05179E7E2B0
  #
  lattice_vector      5.85485077      0.00000000      0.00000000
  lattice_vector      0.00000000      5.95918510      0.00000000
  lattice_vector      0.00000000      0.00000000      7.43170216
  atom_frac       0.50241606      0.00207478      0.00191751 Pd
  atom_frac       0.00206158      0.00208293      0.50265151 Pd
  atom_frac       0.00214521      0.50244425      0.00196407 Pd
  atom_frac       0.50249875      0.50245198      0.50260475 Pd
  atom_frac       0.61428728      0.12006839      0.40431915 Se
  atom_frac       0.89103224      0.88487989      0.90453096 Se
  atom_frac       0.11390631      0.38453554      0.60073745 Se
  atom_frac       0.39061954      0.62040722      0.10024555 Se
  atom_frac       0.39066264      0.88489970      0.60073766 Se
  atom_frac       0.11393859      0.12007567      0.10026376 Se
  atom_frac       0.89100411      0.62040275      0.40432111 Se
  atom_frac       0.61426913      0.38451833      0.90454796 Se
  #
  # What follows is the current estimated Hessian matrix constructed by the BFGS algorithm.
  # This is NOT the true Hessian matrix of the system.
  # If you do not want this information here, switch it off using the "hessian_to_restart_geometry" keyword.
  #
  trust_radius             0.0122098322
  hessian_block                1       1           5.960818           0.055144          -2.192284           0.055144           6.46474
  hessian_block                1       2          -0.036163           0.515419           0.048025           0.300437           0.17610
  hessian_block                1       3          -0.065635           0.535008           0.041713          -0.055790          -0.12061
  hessian_block                1       4           0.511313           0.185090          -0.080536           0.106288          -0.55021
  hessian_block                1       5          -0.040673          -0.447863          -0.189580          -0.344648           0.39295
  hessian_block                1       6          -1.771114          -0.096680           0.591086           0.430771          -0.40950
  hessian_block                1       7          -0.368959           0.376805           0.267038           0.103671           0.17397
  hessian_block                1       8          -0.201429          -0.514181           0.329558          -0.335974          -1.87162
  hessian_block                1       9          -0.126660           0.004454           0.179084          -0.406548          -0.45197
  hessian_block                1      10          -2.306723           0.902950           1.061729           0.057258          -0.47307
  hessian_block                1      11           0.063604          -0.636440          -0.228826           0.245482           0.28092
  hessian_block                1      12          -0.052469          -0.879710           0.172994          -0.156092          -1.96466
  hessian_block                2       2           6.082615           0.304303           2.292734           0.304303           7.26062
  hessian_block                2       3           0.879336           0.833888           0.453298          -0.420390          -0.52775
  hessian_block                2       4           0.193481           0.638844           0.181332          -0.543482           0.66293
  hessian_block                2       5          -2.084146           0.044289          -0.976675           0.525911          -0.72490
  hessian_block                2       6          -0.544569          -0.070787           0.108724          -0.266898          -0.91125
  hessian_block                2       7           0.017766          -0.702801          -0.381690          -0.448940          -1.54275
  hessian_block                2       8          -0.232032          -0.569984          -0.313437           0.093346          -0.40063
  hessian_block                2       9          -2.043524           0.406489          -0.941677           0.585086          -0.80876
  hessian_block                2      10           0.512672          -0.153922           0.005860           0.168607           0.97637
  hessian_block                2      11          -0.603072          -0.685139          -0.176137          -0.418904          -3.22772
  hessian_block                2      12          -0.576450          -0.345616          -0.213549          -0.094059           0.71478
  hessian_block                3       3           6.562847          -0.546374           2.405966          -0.546374           6.30560
  hessian_block                3       4           0.334470          -0.282091          -0.042374          -0.286290           0.06926
  hessian_block                3       5          -0.583379           0.137750          -0.298690          -0.201869           0.47892
  hessian_block                3       6          -0.744809           0.459744          -0.516934          -0.028461          -1.73744
  hessian_block                3       7           0.097007           0.141984           0.220919           0.205663          -0.12142
  hessian_block                3       8          -2.175960          -0.195575          -0.851740          -0.696489          -0.28585
  hessian_block                3       9          -0.288889           0.343862           0.128085          -0.033246          -0.17494
  hessian_block                3      10           0.476407           0.536282           0.175862           1.140430          -2.21513
  hessian_block                3      11          -0.441016           0.081476          -0.191553          -0.525541           0.29322
  hessian_block                3      12          -2.484468          -0.200880          -1.044446          -0.396717          -0.31682
  hessian_block                4       4           5.953205           0.195732          -1.948471           0.195732           7.02526
  hessian_block                4       5          -0.481789           0.625655           0.207193           0.081995          -2.33756
  hessian_block                4       6          -0.024052           0.488434           0.152199          -0.251233          -0.46964
  hessian_block                4       7          -2.017845          -0.942068           0.678111          -0.196860          -0.14445
  hessian_block                4       8          -0.282376          -0.212127          -0.183527           0.034599          -0.50400
  hessian_block                4       9          -0.268427           0.689457           0.162665           0.119935          -2.20940
  hessian_block                4      10          -0.432203          -0.446715          -0.179335          -0.130463           0.91524
  hessian_block                4      11          -1.810879          -0.017264           0.881914          -0.844613          -1.38023
  hessian_block                4      12          -0.108988           0.342381          -0.039962           0.449062           0.56984
  hessian_block                5       5           5.341177          -0.407743          -1.203452          -0.407743           6.35208
  hessian_block                5       6           0.279935          -0.437373          -0.409201           0.195168          -0.17598
  hessian_block                5       7          -0.388365           1.155359           0.055462          -0.916226           0.06414
  hessian_block                5       8           0.135672           0.204216           0.420187           0.506117          -0.02943
  hessian_block                5       9          -1.345645          -0.408678           1.695141          -0.383741          -1.87447
  hessian_block                5      10          -0.151446           0.568034           0.462392           0.036876          -0.06245
  hessian_block                5      11           0.527881          -0.950358           0.012431           1.029943           0.20654
  hessian_block                5      12           0.356691           0.215152          -0.473537          -0.420227          -0.64281
  hessian_block                6       6           5.706612           0.396167           1.821633           0.396167           5.81173
  hessian_block                6       7          -0.047506          -0.126809          -0.039500           0.464913           0.18410
  hessian_block                6       8          -0.129992           0.361609           0.147813           0.129201           0.25620
  hessian_block                6       9           0.090776           0.112947           0.003106           0.275588           0.80101
  hessian_block                6      10          -1.982666          -1.296928          -2.830744          -1.006202          -2.07384
  hessian_block                6      11           0.241641           0.330856          -0.144666          -0.749383           0.57668
  hessian_block                6      12           0.491653           0.142810           0.295355           0.146379          -0.20501
  hessian_block                7       7           5.454917           0.512175           1.110342           0.512175           6.08322
  hessian_block                7       8          -0.031893          -0.125023           0.031806           0.022082          -0.40871
  hessian_block                7       9           0.366205           0.593889          -0.255770          -0.663545          -0.43867
  hessian_block                7      10           0.274903          -0.593707          -0.164374           0.059446          -0.34879
  hessian_block                7      11          -1.872178           0.451755          -1.676877           0.660066          -2.37553
  hessian_block                7      12           0.081856          -0.051308           0.510633          -0.492695           0.52192
  hessian_block                8       8           4.761555           0.082842          -0.917895           0.082842           5.65402
  hessian_block                8       9           0.236211          -0.515282          -0.216069           0.143624           0.18283
  hessian_block                8      10           0.063994          -0.229554           0.262108          -0.599622          -0.52906
  hessian_block                8      11           0.174491          -0.145026          -0.196712           0.576208           1.16674
  hessian_block                8      12          -0.752330           1.054136           1.717314           0.848013          -1.58344
  hessian_block                9       9           5.030765          -0.541156          -0.801053          -0.541156           6.44310
  hessian_block                9      10          -0.049957           0.257466          -0.138222          -0.183975          -0.10356
  hessian_block                9      11          -0.172258           0.880122          -0.113125          -0.728936           0.51646
  hessian_block                9      12           0.137313          -0.233585           0.663758           0.226927          -0.23460
  hessian_block               10      10           5.864458           0.554298           1.681805           0.554298           6.93378
  hessian_block               10      11          -0.155043           0.054061           0.426227           0.382591          -1.41581
  hessian_block               10      12          -0.548485          -0.150714          -0.202212          -0.480797           0.04337
  hessian_block               11      11           5.502752           0.299398           0.815434           0.299398           7.95210
  hessian_block               11      12           0.109986           0.073687          -0.461697           0.336563          -0.94636
  hessian_block               12      12           4.911600           0.033642          -0.924654           0.033642           5.69083
  hessian_block_lv             1       1          23.315684          -3.668408           4.872290          -3.668408          23.65817
  hessian_block_lv_atom        1       1           0.242450           0.365058           0.053526          -0.417511          -0.62679
  hessian_block_lv_atom        1       2          -0.527977          -0.893214          -0.219432           0.147014          -0.22443
  hessian_block_lv_atom        1       3          -0.585287          -0.994266          -0.248680           0.258506           0.47379
  hessian_block_lv_atom        1       4           0.089359           0.094318          -0.007727           0.759432           0.79565
  hessian_block_lv_atom        1       5           0.296910           0.447366           0.367298           0.123420          -0.02595
  hessian_block_lv_atom        1       6           0.091510          -0.091843          -0.290622          -0.496100          -0.27005
  hessian_block_lv_atom        1       7          -0.555629          -0.811818           0.114476          -0.727975          -0.98922
  hessian_block_lv_atom        1       8          -0.037136           0.219140          -0.235076           0.092110           0.24113
  hessian_block_lv_atom        1       9           0.108353           0.204641          -0.204672          -0.594879          -0.39573
  hessian_block_lv_atom        1      10          -0.219433           0.047306           0.319430           0.538209           0.17162
  hessian_block_lv_atom        1      11           0.592634           0.966145          -0.048629           0.295760           0.84497
  hessian_block_lv_atom        1      12           0.504247           0.447167           0.400107           0.022011           0.00500
  symmetry_n_params 39 3 36
  symmetry_params a1 b2 c3 x0 x1 x2 x3 x4 x5 x6 x7 x8 x9 x10 x11 x12 x13 x14 x15 x16 x17 x18 x19 x20 x21 x22 x23 x24 x25 x26 x27 x28 x
  symmetry_lv a1 , 0 , 0
  symmetry_lv 0 , b2 , 0
  symmetry_lv 0 , 0 , c3
  symmetry_frac x0 , x1 , x2
  symmetry_frac x3 , x4 , x5
  symmetry_frac x6 , x7 , x8
  symmetry_frac x9 , x10 , x11
  symmetry_frac x12 , x13 , x14
  symmetry_frac x15 , x16 , x17
  symmetry_frac x18 , x19 , x20
  symmetry_frac x21 , x22 , x23
  symmetry_frac x24 , x25 , x26
  symmetry_frac x27 , x28 , x29
  symmetry_frac x30 , x31 , x32
  symmetry_frac x33 , x34 , x35
  
  -----------------------------------------------------------------------
  Completed first pass over input file geometry.in .
  -----------------------------------------------------------------------
  

  Basic array size parameters:
  | Number of species                 :        2
  | Number of atoms                   :       12
  | Number of lattice vectors         :        3
  | Max. basis fn. angular momentum   :        4
  | Max. atomic/ionic basis occupied n:        5
  | Max. number of basis fn. types    :        3
  | Max. radial fns per species/type  :       10
  | Max. logarithmic grid size        :     1444
  | Max. radial integration grid size :      125
  | Max. angular integration grid size:      434
  | Max. angular grid division number :        8
  | Radial grid for Hartree potential :     1444
  | Number of spin channels           :        1

------------------------------------------------------------
          Reading file control.in.
------------------------------------------------------------
  XC: Using PBE gradient-corrected functionals.
  Using libMBD for calculating MBD and TS energies
  Spin treatment: No spin polarisation.
  Found k-point grid:        28        28        23
  Scalar relativistic treatment of kinetic energy: on-site free-atom approximation to ZORA.
  Max energy increase before discarding BFGS move:   0.100000E-01 eV
  Assuming qualitatively harmonic for steps shorter than   0.150000E-01 A.
  S.C.F. convergence parameters will be adjusted in iteration number     3 of each new s.c.f. cycle.
  Geometry relaxation: Modified BFGS - TRM (trust radius method) for lattice optimization.
  Convergence accuracy for geometry relaxation: Maximum force <   0.100000E-01 eV/A.
 
  Reading configuration options for species Pd                  .
  | Found nuclear charge :  46.0000
  | Found atomic mass :    106.420000000000      amu
  | Found l_max for Hartree potential  :   6
  | Found cutoff potl. onset [A], width [A], scale factor :    4.00000    2.00000    1.00000
  | Threshold for basis-dependent cutoff potential is   0.100000E-03
  | Found data for basic radial integration grid :    62 points, outermost radius =    7.000 A
  | Found multiplier for basic radial grid :   2
  | Found angular grid specification: user-specified.
  | Specified grid contains     6 separate shells.
  | Check grid settings after all constraints further below.
  | Found free-atom valence shell :  5 s   1.000
  | Found free-atom valence shell :  4 p   6.000
  | Found free-atom valence shell :  4 d   9.000
  | Found free-ion valence shell :  5 s   0.000
  | Found free-ion valence shell :  4 p   6.000
  | Found free-ion valence shell :  4 d   8.000
  | Found ionic basis function :  5 p , default cutoff radius.
  | Found hydrogenic basis function :  4 f   8.000
  | Found hydrogenic basis function :  5 g  10.000
  | Found hydrogenic basis function :  3 s   2.600
  | Found hydrogenic basis function :  3 d   2.500
  Species Pd                  : Missing cutoff potential type.
  Defaulting to exp(1/x)/(1-x)^2 type cutoff potential.
  Species Pd: No 'logarithmic' tag. Using default grid for free atom:
  | Default logarithmic grid data [bohr] : 0.1000E-03 0.1000E+03 0.1012E+01
  | Will include ionic basis functions of  2.0-fold positive Pd                   ion.
  Species Pd: On-site basis accuracy parameter (for Gram-Schmidt orthonormalisation) not specified.
  Using default value basis_acc =  0.1000000E-03.
  Species Pd                  : Using default innermost maximum threshold i_radial=  2 for radial functions.
  Species Pd                  : Default cutoff onset for free atom density etc. : 0.40000000E+01 AA.
  Species Pd                  : Basic radial grid will be enhanced according to radial_multiplier =   2, to contain   125 grid points.
 
  Reading configuration options for species Se                  .
  | Found nuclear charge :  34.0000
  | Found atomic mass :    78.9600000000000      amu
  | Found l_max for Hartree potential  :   6
  | Found cutoff potl. onset [A], width [A], scale factor :    4.00000    2.00000    1.00000
  | Threshold for basis-dependent cutoff potential is   0.100000E-03
  | Found data for basic radial integration grid :    55 points, outermost radius =    7.000 A
  | Found multiplier for basic radial grid :   2
  | Found angular grid specification: user-specified.
  | Specified grid contains     5 separate shells.
  | Check grid settings after all constraints further below.
  | Found free-atom valence shell :  4 s   2.000
  | Found free-atom valence shell :  4 p   4.000
  | Found free-atom valence shell :  3 d  10.000
  | Found free-ion valence shell :  4 s   1.000
  | Found free-ion valence shell :  4 p   3.000
  | Found free-ion valence shell :  3 d  10.000
  | Found hydrogenic basis function :  3 d   4.300
  | Found hydrogenic basis function :  2 p   1.600
  | Found hydrogenic basis function :  4 f   7.200
  | Found ionic basis function :  4 s , default cutoff radius.
  Species Se                  : Missing cutoff potential type.
  Defaulting to exp(1/x)/(1-x)^2 type cutoff potential.
  Species Se: No 'logarithmic' tag. Using default grid for free atom:
  | Default logarithmic grid data [bohr] : 0.1000E-03 0.1000E+03 0.1012E+01
  | Will include ionic basis functions of  2.0-fold positive Se                   ion.
  Species Se: On-site basis accuracy parameter (for Gram-Schmidt orthonormalisation) not specified.
  Using default value basis_acc =  0.1000000E-03.
  Species Se                  : Using default innermost maximum threshold i_radial=  2 for radial functions.
  Species Se                  : Default cutoff onset for free atom density etc. : 0.40000000E+01 AA.
  Species Se                  : Basic radial grid will be enhanced according to radial_multiplier =   2, to contain   111 grid points.
 
  Finished reading input file 'control.in'. Consistency checks are next.
 
  MPI_IN_PLACE appears to work with this MPI implementation.
  | Keeping use_mpi_in_place .true. (see manual).
  Target number of points in a grid batch is not set. Defaulting to  100
  Method for grid partitioning is not set. Defaulting to parallel hash+maxmin partitioning.
  Batch size limit is not set. Defaulting to    200
  By default, will store active basis functions for each batch.
  If in need of memory, prune_basis_once .false. can be used to disable this option.
  communication_type for Hartree potential was not specified.
  Defaulting to calc_hartree .
  Defaulting to Pulay charge density mixer.
  Pulay mixer: Number of relevant iterations not set.
  Defaulting to    8 iterations.
  Pulay mixer: Number of initial linear mixing iterations not set.
  Defaulting to    0 iterations.
  Work space size for distributed Hartree potential not set.
  Defaulting to   0.200000E+03 MB.
  Mixing parameter for charge density mixing has not been set.
  Using default: charge_mix_param =     0.0500.
  The mixing parameter will be adjusted in iteration number     3 of each s.c.f. cycle (i.e., each geometry step).
  Algorithm-dependent basis array size parameters:
  | n_max_pulay                         :        8
  Maximum number of self-consistency iterations not provided.
  Presetting  1000 iterations.
  Presetting      1001 iterations before the initial mixing cycle
  is restarted anyway using the sc_init_iter criterion / keyword.
  Presetting a factor      1.000 between actual scf density residual
  and density convergence criterion sc_accuracy_rho below which sc_init_iter
  takes no effect.
 * No s.c.f. convergence criteria (sc_accuracy_*) were provided in control.in.
 * The run will proceed with a reasonable default guess, but please check whether.
 * the s.c.f. cycles seem to take too much or too little time.
  No maximum number of relaxation steps, defaulting to     1000
  Using explicit Hessian from geometry.in.
  Maximum energy tolerance by which TRM/BFGS trajectory may increase over multiple steps:   0.300000E-02
  No trust radius initializer. Defaulting to   0.200000E+00 A.
  Unit cell relaxation: Unit cell will be relaxed fully.
  Unit cell relaxation: Analytical stress will be used.
  Analytical stress will be computed.
  Analytical stress calculation: Only the upper triangle is calculated.
                                 Final output is symmetrized.
  Analytical stress calculation: scf convergence accuracy of stress not set.
                                 Analytical stress self-consistency will not be checked explicitly.
                                 Be sure to set other criteria like sc_accuracy_rho tight enough.
 * Notice: The s.c.f. convergence criterion sc_accuracy_rho was not provided.
 * We used to stop in this case, and ask the user to provide reasonable
 * scf convergence criteria. However, this led some users to employ criteria
 * that led to extremely long run times, e.g., for simple relaxation.
 * We now preset a default value for sc_accuracy_rho if it is not set.
 * You may still wish to check if this setting is too tight or too loose for your needs.
 * Based on n_atoms, FHI-aims chose sc_accuracy_rho =  0.141421E-05 .
  Force calculation: scf convergence accuracy of forces not set.
  Defaulting to 'sc_accuracy_forces not_checked'.
  Handling of forces: Unphysical translation and rotation will be removed from forces.
  No accuracy limit for integral partition fn. given. Defaulting to  0.1000E-14.
  No threshold value for u(r) in integrations given. Defaulting to  0.1000E-05.
  No occupation type (smearing scheme) given. Defaulting to Gaussian broadening, width =  0.1000E-01 eV.
  The width will be adjusted in iteration number     3 of each s.c.f. cycle (i.e., each geometry step).
  S.C.F. convergence parameters will be adjusted in iteration number     3 of the first full s.c.f. cycle only.
  No accuracy for occupation numbers given. Defaulting to  0.1000E-12.
  No threshold value for occupation numbers given. Defaulting to  0.0000E+00.
  No accuracy for fermi level given. Defaulting to  0.1000E-19.
  Maximum # of iterations to find E_F not set. Defaulting to  200.
  Preferred method for the eigenvalue solver ('KS_method') not specified in 'control.in'.
  Defaulting to serial version, LAPACK (via ELSI), since more k-points than CPUs available.
  Will not use alltoall communication since running on < 1024 CPUs.
  Threshold for basis singularities not set.
  Default threshold for basis singularities:  0.1000E-04
  partition_type (choice of integration weights) for integrals was not specified.
  | Using a version of the partition function of Stratmann and coworkers ('stratmann_sparse').
  | At each grid point, the set of atoms used to build the partition table is smoothly restricted to
  | only those atoms whose free-atom density would be non-zero at that grid point.
  Partitioning for Hartree potential was not defined. Using partition_type for integrals.
  | Adjusted default value of keyword multip_moments_threshold to:       0.10000000E-11
  | This value may affect high angular momentum components of the Hartree potential in periodic systems.
  Angular momentum expansion for Kerker preconditioner not set explicitly.
  | Using default value of   0
  No explicit requirement for turning off preconditioner.
  | By default, it will be turned off when the charge convergence reaches
  | sc_accuracy_rho  =   0.141421E-05
  No special mixing parameter while Kerker preconditioner is on.
  Using default: charge_mix_param =     0.0500.
  No q(lm)/r^(l+1) cutoff set for long-range Hartree potential.
  | Using default value of  0.100000E-09 .
  | Verify using the multipole_threshold keyword.
  Defaulting to new monopole extrapolation.
  Density update method: automatic selection selected.
  Using density matrix based charge density update.
  Using density matrix based charge density update.
  Using packed matrix style: index .
  Geometry relaxation: A file "geometry.in.next_step" is written out by default after each step.
  | This file contains the geometry of the current relaxation step as well as
  | the current Hessian matrix needed to restart the relaxation algorithm.
  | If you do not want part or all of this information, use the keywords
  | "write_restart_geometry" or "hessian_to_restart_geometry" to switch the output off.
  Defaulting to use time-reversal symmetry for k-point grid.
  Charge integration errors on the 3D integration grid will be compensated
  by explicit normalization and distribution of residual charges.
  Use the "compensate_multipole_errors" flag to change this behaviour.
------------------------------------------------------------


------------------------------------------------------------
          Reading geometry description geometry.in.
------------------------------------------------------------
  Input structure read successfully.
  The structure contains       12 atoms,  and a total of        456.000 electrons.

  Input geometry:
  | Unit cell:
  |        5.85485077        0.00000000        0.00000000
  |        0.00000000        5.95918510        0.00000000
  |        0.00000000        0.00000000        7.43170216
  | Atomic structure:
  |       Atom                x [A]            y [A]            z [A]
  |    1: Species Pd            2.94157106        0.01236400        0.01425036
  |    2: Species Pd            0.01207024        0.01241257        3.73555631
  |    3: Species Pd            0.01255988        2.99415829        0.01459638
  |    4: Species Pd            2.94205519        2.99420435        3.73520881
  |    5: Species Se            3.59656035        0.71550976        3.00477950
  |    6: Species Se            5.21686080        5.27316306        6.72220469
  |    7: Species Se            0.66690445        2.29151846        4.46450180
  |    8: Species Se            2.28701911        3.69712146        0.74499507
  |    9: Species Se            2.28727146        5.27328111        4.46450337
  |   10: Species Se            0.66709344        0.71555314        0.74513040
  |   11: Species Se            5.21669610        3.69709482        3.00479407
  |   12: Species Se            3.59645409        2.29141590        6.72233103

  Lattice parameters for 3D lattice (in Angstroms) :     5.854851    5.959185    7.431702
  Angle(s) between unit vectors (in degrees)       :    90.000000   90.000000   90.000000

  | The smallest distance between any two atoms is         2.40491122 AA.
  | The first atom of this pair is atom number                      6 .
  | The second atom of this pair is atom number                    10 .
  | Wigner-Seitz cell of the first atom image           0     0     0 .
  | (The Wigner-Seitz cell of the second atom is 0 0 0  by definition.)

  Symmetry information by spglib:
  | Precision set to  0.1E-04
  | Number of Operations  : 1
  | Space group           : 1
  | International         : P1
  | Schoenflies           : C1^1

  Quantities derived from the lattice vectors:
  | Reciprocal lattice vector 1:  1.073159  0.000000  0.000000
  | Reciprocal lattice vector 2:  0.000000  1.054370  0.000000
  | Reciprocal lattice vector 3:  0.000000  0.000000  0.845457
  | Unit cell volume                               :   0.259293E+03  A^3

  Range separation radius for Ewald summation (hartree_convergence_parameter):      3.99886883 bohr.

  Fractional coordinates:
                         L1                L2                L3
       atom_frac         0.50241606        0.00207478        0.00191751  Pd
       atom_frac         0.00206158        0.00208293        0.50265151  Pd
       atom_frac         0.00214521        0.50244425        0.00196407  Pd
       atom_frac         0.50249875        0.50245198        0.50260475  Pd
       atom_frac         0.61428728        0.12006839        0.40431915  Se
       atom_frac         0.89103224        0.88487989        0.90453096  Se
       atom_frac         0.11390631        0.38453554        0.60073745  Se
       atom_frac         0.39061954        0.62040722        0.10024555  Se
       atom_frac         0.39066264        0.88489970        0.60073766  Se
       atom_frac         0.11393859        0.12007567        0.10026376  Se
       atom_frac         0.89100411        0.62040275        0.40432111  Se
       atom_frac         0.61426913        0.38451833        0.90454796  Se

  Number of empty states per atom not set in control.in - providing a guess from actual geometry.
  | Total number of empty states used during s.c.f. cycle:       66
  If you use a very high smearing, use empty_states (per atom!) in control.in to increase this value.

  Structure-dependent array size parameters: 
  | Maximum number of distinct radial functions  :       27
  | Maximum number of basis functions            :      468
  | Number of Kohn-Sham states (occupied + empty):      294
------------------------------------------------------------

------------------------------------------------------------
          Preparing all fixed parts of the calculation.
------------------------------------------------------------
  Determining machine precision:
    2.225073858507201E-308
  Setting up grids for atomic and cluster calculations.

  Creating wave function, potential, and density for free atoms.

  Species: Pd

  List of occupied orbitals and eigenvalues:
    n    l              occ      energy [Ha]    energy [eV]
    1    0           2.0000      -913.269104    -24851.3168
    2    0           2.0000      -130.434372     -3549.2998
    3    0           2.0000       -23.521804      -640.0609
    4    0           2.0000        -3.256918       -88.6253
    5    0           1.0000        -0.157260        -4.2793
    2    1           6.0000      -116.910756     -3181.3035
    3    1           6.0000       -19.103344      -519.8284
    4    1           6.0000        -1.998052       -54.3697
    3    2          10.0000       -12.098182      -329.2083
    4    2           9.0000        -0.243389        -6.6230


  Species: Se

  List of occupied orbitals and eigenvalues:
    n    l              occ      energy [Ha]    energy [eV]
    1    0           2.0000      -466.337810    -12689.6975
    2    0           2.0000       -59.202598     -1610.9847
    3    0           2.0000        -7.847116      -213.5309
    4    0           2.0000        -0.634372       -17.2621
    2    1           6.0000       -52.061107     -1416.6548
    3    1           6.0000        -5.620941      -152.9536
    4    1           4.0000        -0.238469        -6.4891
    3    2          10.0000        -1.951949       -53.1152

  Creating fixed part of basis set: Ionic, confined, hydrogenic.
 
  Pd                   ion:

  List of free ionic orbitals and eigenvalues:
    n    l      energy [Ha]    energy [eV]
    1    0      -914.099884    -24873.9234
    2    0      -131.248265     -3571.4470
    3    0       -24.332473      -662.1203
    4    0        -4.059276      -110.4585
    2    1      -117.724296     -3203.4411
    3    1       -19.913908      -541.8850
    4    1        -2.795328       -76.0648
    3    2       -12.908733      -351.2645
    4    2        -1.004248       -27.3270


  List of ionic basis orbitals and eigenvalues:
    n    l      energy [Ha]    energy [eV]    outer radius [A]
    5    1        -0.516938       -14.0666       5.427025

 
  Pd                   hydrogenic:
 
  List of hydrogenic basis orbitals: 
    n    l      effective z      eigenvalue [eV]  inner max. [A]     outer max. [A]     outer radius [A]   
    4    3         8.000000       -54.4226           1.054686           1.054686           4.629581
    5    4        10.000000       -54.4226           1.330451           1.330451           5.043202
    3    0         2.600000        -9.8948           0.150992           2.606197           5.493778
    3    2         2.500000        -9.3396           1.873517           1.873517           5.493778
 
 
  Se                   ion:

  List of free ionic orbitals and eigenvalues:
    n    l      energy [Ha]    energy [eV]
    1    0      -467.261007    -12714.8189
    2    0       -60.104893     -1635.5374
    3    0        -8.743714      -237.9286
    4    0        -1.414053       -38.4783
    2    1       -52.964156     -1441.2280
    3    1        -6.516916      -177.3343
    4    1        -0.961869       -26.1738
    3    2        -2.844511       -77.4031


  List of ionic basis orbitals and eigenvalues:
    n    l      energy [Ha]    energy [eV]    outer radius [A]
    4    0        -1.414046       -38.4782       4.083166

 
  Se                   hydrogenic:
 
  List of hydrogenic basis orbitals: 
    n    l      effective z      eigenvalue [eV]  inner max. [A]     outer max. [A]     outer radius [A]   
    3    2         4.300000       -27.9518           1.103845           1.103845           5.278265
    2    1         1.600000        -8.6828           1.326010           1.326010           5.475439
    4    3         7.200000       -44.0822           1.173422           1.173422           4.965294
 

  Adding cutoff potential to free-atom effective potential.
  Creating atomic-like basis functions for current effective potential.

  Species Pd                  :

  List of atomic basis orbitals and eigenvalues:
    n    l      energy [Ha]    energy [eV]    outer radius [A]
    1    0      -913.269104    -24851.3168       0.223280
    2    0      -130.434372     -3549.2998       0.615909
    3    0       -23.521804      -640.0609       1.414312
    4    0        -3.256918       -88.6253       3.581357
    5    0        -0.157260        -4.2793       5.427025
    2    1      -116.910756     -3181.3035       0.631154
    3    1       -19.103344      -519.8284       1.540671
    4    1        -1.998052       -54.3697       4.408641
    3    2       -12.098182      -329.2083       1.806051
    4    2        -0.243389        -6.6230       5.361084


  Species Se                  :

  List of atomic basis orbitals and eigenvalues:
    n    l      energy [Ha]    energy [eV]    outer radius [A]
    1    0      -466.337810    -12689.6975       0.309561
    2    0       -59.202598     -1610.9847       0.885812
    3    0        -7.847116      -213.5309       2.355489
    4    0        -0.634372       -17.2621       5.214131
    2    1       -52.061107     -1416.6548       0.907737
    3    1        -5.620941      -152.9536       2.694529
    4    1        -0.238469        -6.4891       5.408909
    3    2        -1.951949       -53.1152       4.083166

  Assembling full basis from fixed parts.
  | Species Pd :   atomic orbital   1 s accepted.
  | Species Pd :   atomic orbital   2 s accepted.
  | Species Pd :   atomic orbital   3 s accepted.
  | Species Pd :   atomic orbital   4 s accepted.
  | Species Pd :   atomic orbital   5 s accepted.
  | Species Pd :    hydro orbital   3 s accepted.
  | Species Pd :   atomic orbital   2 p accepted.
  | Species Pd :   atomic orbital   3 p accepted.
  | Species Pd :   atomic orbital   4 p accepted.
  | Species Pd :    ionic orbital   5 p accepted.
  | Species Pd :   atomic orbital   3 d accepted.
  | Species Pd :   atomic orbital   4 d accepted.
  | Species Pd :    hydro orbital   3 d accepted.
  | Species Pd :    hydro orbital   4 f accepted.
  | Species Pd :    hydro orbital   5 g accepted.
  | Species Se :   atomic orbital   1 s accepted.
  | Species Se :   atomic orbital   2 s accepted.
  | Species Se :   atomic orbital   3 s accepted.
  | Species Se :    ionic orbital   4 s accepted.
  | Species Se :   atomic orbital   4 s accepted.
  | Species Se :   atomic orbital   2 p accepted.
  | Species Se :   atomic orbital   3 p accepted.
  | Species Se :   atomic orbital   4 p accepted.
  | Species Se :    hydro orbital   2 p accepted.
  | Species Se :   atomic orbital   3 d accepted.
  | Species Se :    hydro orbital   3 d accepted.
  | Species Se :    hydro orbital   4 f accepted.
 
  Basis size parameters after reduction:
  | Total number of radial functions:       27
  | Total number of basis functions :      468
 
  Per-task memory consumption for arrays in subroutine allocate_ext:
  |           9.993344MB.
  Testing on-site integration grid accuracy.
  |  Species  Function  <phi|h_atom|phi> (log., in eV)  <phi|h_atom|phi> (rad., in eV)
           1        1             -24851.3167505682             -24851.3148165635
           1        2              -3549.2998457785              -3549.2998098031
           1        3               -640.0608571327               -640.0608534886
           1        4                -88.6252603131                -88.6252593316
           1        5                 -4.2849374515                 -4.2849400622
           1        6                  4.9432123540                  4.9432188418
           1        7              -3181.3035399559              -3181.3035364574
           1        8               -519.8284281886               -519.8284264063
           1        9                -54.3697495804                -54.3697489261
           1       10                  0.8628369484                  0.8628370487
           1       11               -329.2082917394               -329.2082912864
           1       12                 -6.6230267036                 -6.6230265076
           1       13                  5.4924295291                  5.4924115607
           1       14                 25.0740861942                 25.0740861175
           1       15                 38.8271273823                 38.8271278029
           2       16             -12689.6974611609             -12689.6967666984
           2       17              -1610.9846578580              -1610.9846472470
           2       18               -213.5308789869               -213.5308777267
           2       19                -17.0464428502                -17.0464426496
           2       20                  6.7356859379                  6.7356842047
           2       21              -1416.6548010133              -1416.6548002108
           2       22               -152.9535734377               -152.9535727493
           2       23                 -6.4896265677                 -6.4896303794
           2       24                  5.2703037283                  5.2701679583
           2       25                -53.1152220964                -53.1152219035
           2       26                  7.6186674138                  7.6186665630
           2       27                 23.1072799052                 23.1072803137

  Preparing densities etc. for the partition functions (integrals / Hartree potential).

  Preparations completed.
  max(cpu_time)          :      0.553 s.
  Wall clock time (cpu1) :      0.589 s.
------------------------------------------------------------

------------------------------------------------------------
          Begin self-consistency loop: Initialization.

          Date     :  20200420, Time     :  205309.205
------------------------------------------------------------

  Initializing index lists of integration centers etc. from given atomic structure:
  Mapping all atomic coordinates to central unit cell.

  Initializing the k-points
  Using symmetry for reducing the k-points
  | k-points reduced from:    18032 to     9018
  | Number of k-points                             :      9018
  The eigenvectors in the calculations are COMPLEX.
  | K-points in task   0:       375
  | K-points in task   1:       376
  | K-points in task   2:       376
  | K-points in task   3:       376
  | K-points in task   4:       376
  | K-points in task   5:       376
  | K-points in task   6:       376
  | K-points in task   7:       376
  | K-points in task   8:       376
  | K-points in task   9:       376
  | K-points in task  10:       376
  | K-points in task  11:       376
  | K-points in task  12:       376
  | K-points in task  13:       376
  | K-points in task  14:       376
  | K-points in task  15:       376
  | K-points in task  16:       376
  | K-points in task  17:       376
  | K-points in task  18:       376
  | K-points in task  19:       375
  | K-points in task  20:       375
  | K-points in task  21:       375
  | K-points in task  22:       375
  | K-points in task  23:       375
  | Number of basis functions in the Hamiltonian integrals :      5560
  | Number of basis functions in a single unit cell        :       468
  | Number of centers in hartree potential         :      1325
  | Number of centers in hartree multipole         :       769
  | Number of centers in electron density summation:       596
  | Number of centers in basis integrals           :       640
  | Number of centers in integrals                 :       236
  | Number of centers in hamiltonian               :       596
  | Consuming      12117 KiB for k_phase.
  | Number of super-cells (origin) [n_cells]                     :         567
  | Number of super-cells (after PM_index) [n_cells]             :          86
  | Number of super-cells in hamiltonian [n_cells_in_hamiltonian]:          86
  | Size of matrix packed + index [n_hamiltonian_matrix_size] :     1293650

  Initializing relaxation algorithms.
  | Estimated reciprocal-space cutoff momentum G_max:         2.42891645 bohr^-1 .
  | Reciprocal lattice points for long-range Hartree potential:     418
  Partitioning the integration grid into batches with parallel hashing+maxmin method.
  | Number of batches:     4178
  | Maximal batch size:     110
  | Minimal batch size:      49
  | Average batch size:      91.943
  | Standard deviation of batch sizes:      11.302

  Integration load balanced across    24 MPI tasks.
  Work distribution over tasks is as follows:
  Task     0 has      15995 integration points.
  Task     1 has      15999 integration points.
  Task     2 has      16016 integration points.
  Task     3 has      16024 integration points.
  Task     4 has      15994 integration points.
  Task     5 has      16034 integration points.
  Task     6 has      15963 integration points.
  Task     7 has      16033 integration points.
  Task     8 has      15993 integration points.
  Task     9 has      16030 integration points.
  Task    10 has      16030 integration points.
  Task    11 has      16018 integration points.
  Task    12 has      16021 integration points.
  Task    13 has      16036 integration points.
  Task    14 has      15962 integration points.
  Task    15 has      16019 integration points.
  Task    16 has      15975 integration points.
  Task    17 has      16013 integration points.
  Task    18 has      15975 integration points.
  Task    19 has      16023 integration points.
  Task    20 has      16000 integration points.
  Task    21 has      16000 integration points.
  Task    22 has      15962 integration points.
  Task    23 has      16021 integration points.
  Initializing partition tables, free-atom densities, potentials, etc. across the integration grid (initialize_grid_storage).
  | initialize_grid_storage: Actual outermost partition radius vs. multipole_radius_free
  | (-- VB: in principle, multipole_radius_free should be larger, hence this output)
  | Species        1: Confinement radius =              6.000000000000000 AA, multipole_radius_free =              6.058219618167466 AA.
  | Species        1: outer_partition_radius set to              6.058219618167466 AA .
  | Species        2: Confinement radius =              6.000000000000000 AA, multipole_radius_free =              6.037996416842453 AA.
  | Species        2: outer_partition_radius set to              6.037996416842453 AA .
  | The sparse table of interatomic distances needs       2897.83 kbyte instead of      3276.80 kbyte of memory.
  | Net number of integration points:   384136
  | of which are non-zero points    :   322119
  | Numerical average free-atom electrostatic potential    :    -17.07888745 eV
  Renormalizing the initial density to the exact electron count on the 3D integration grid.
  | Initial density: Formal number of electrons (from input files) :     456.0000000000
  | Integrated number of electrons on 3D grid     :     456.0000569232
  | Charge integration error                      :       0.0000569232
  | Normalization factor for density and gradient :       0.9999998752
  Renormalizing the free-atom superposition density to the exact electron count on the 3D integration grid.
  | Formal number of electrons (from input files) :     456.0000000000
  | Integrated number of electrons on 3D grid     :     456.0000569232
  | Charge integration error                      :       0.0000569232
  | Normalization factor for density and gradient :       0.9999998752
  Obtaining max. number of non-zero basis functions in each batch (get_n_compute_maxes).
  | Maximal number of non-zero basis functions:     1016 in task     0
  | Maximal number of non-zero basis functions:     1010 in task     1
  | Maximal number of non-zero basis functions:     1009 in task     2
  | Maximal number of non-zero basis functions:     1040 in task     3
  | Maximal number of non-zero basis functions:     1034 in task     4
  | Maximal number of non-zero basis functions:     1012 in task     5
  | Maximal number of non-zero basis functions:     1028 in task     6
  | Maximal number of non-zero basis functions:     1034 in task     7
  | Maximal number of non-zero basis functions:     1030 in task     8
  | Maximal number of non-zero basis functions:     1017 in task     9
  | Maximal number of non-zero basis functions:     1025 in task    10
  | Maximal number of non-zero basis functions:     1030 in task    11
  | Maximal number of non-zero basis functions:     1029 in task    12
  | Maximal number of non-zero basis functions:     1026 in task    13
  | Maximal number of non-zero basis functions:     1029 in task    14
  | Maximal number of non-zero basis functions:     1021 in task    15
  | Maximal number of non-zero basis functions:     1024 in task    16
  | Maximal number of non-zero basis functions:     1012 in task    17
  | Maximal number of non-zero basis functions:     1034 in task    18
  | Maximal number of non-zero basis functions:     1042 in task    19
  | Maximal number of non-zero basis functions:      998 in task    20
  | Maximal number of non-zero basis functions:     1024 in task    21
  | Maximal number of non-zero basis functions:      999 in task    22
  | Maximal number of non-zero basis functions:     1027 in task    23
  Allocating      787.308 MB for KS_eigenvector_complex
  Integrating Hamiltonian matrix: batch-based integration.
  Time summed over all CPUs for integration: real work       63.992 s, elapsed       64.648 s
  Integrating overlap matrix.
  Time summed over all CPUs for integration: real work       46.222 s, elapsed       46.826 s
  Decreasing sparse matrix size:
  | Tolerance:  0.1000E-12
  Hamiltonian matrix
  | Array has  1119464 nonzero elements out of  1293650 elements
  | Sparsity factor is 0.135
  Overlap matrix
  | Array has  1033032 nonzero elements out of  1293650 elements
  | Sparsity factor is 0.201
  New size of hamiltonian matrix:     1119536

  Updating Kohn-Sham eigenvalues and eigenvectors using ELSI and the (modified) LAPACK eigensolver.
  Singularity check in k-point 24, task 0 (analysis for other k-points/tasks may follow below):
  Overlap matrix is not singular
  | Lowest and highest eigenvalues :  0.5878E-03,  0.7302E+01
  Finished singularity check of overlap matrix
  | Time :     0.077 s
  Starting LAPACK eigensolver
  Finished Cholesky decomposition
  | Time :     0.018 s
  Finished transformation to standard eigenproblem
  | Time :     0.022 s
  Finished solving standard eigenproblem
  | Time :     0.073 s
  Finished back-transformation of eigenvectors
  | Time :     0.009 s

  Obtaining occupation numbers and chemical potential using ELSI.
  | Chemical potential (Fermi level):    -4.63457979 eV
  Writing Kohn-Sham eigenvalues.
  K-point:       1 at    0.000000    0.000000    0.000000 (in units of recip. lattice)

  State    Occupation    Eigenvalue [Ha]    Eigenvalue [eV]
      1       2.00000        -913.279499       -24851.59961
      2       2.00000        -913.279488       -24851.59931
      3       2.00000        -913.279488       -24851.59930
      4       2.00000        -913.279413       -24851.59725
      5       2.00000        -466.350323       -12690.03795
      6       2.00000        -466.350286       -12690.03695
      7       2.00000        -466.350249       -12690.03593
      8       2.00000        -466.350244       -12690.03581
      9       2.00000        -466.350244       -12690.03581
     10       2.00000        -466.350231       -12690.03546
     11       2.00000        -466.350218       -12690.03510
     12       2.00000        -466.350199       -12690.03458
     13       2.00000        -130.445083        -3549.59132
     14       2.00000        -130.445073        -3549.59102
     15       2.00000        -130.445072        -3549.59101
     16       2.00000        -130.444996        -3549.58894
     17       2.00000        -116.921492        -3181.59566
     18       2.00000        -116.921483        -3181.59542
     19       2.00000        -116.921480        -3181.59536
     20       2.00000        -116.921480        -3181.59535
     21       2.00000        -116.921472        -3181.59513
     22       2.00000        -116.921471        -3181.59511
     23       2.00000        -116.921429        -3181.59396
     24       2.00000        -116.921418        -3181.59366
     25       2.00000        -116.921418        -3181.59365
     26       2.00000        -116.921404        -3181.59328
     27       2.00000        -116.921395        -3181.59304
     28       2.00000        -116.921342        -3181.59159
     29       2.00000         -59.215537        -1611.33675
     30       2.00000         -59.215500        -1611.33573
     31       2.00000         -59.215462        -1611.33469
     32       2.00000         -59.215457        -1611.33458
     33       2.00000         -59.215457        -1611.33457
     34       2.00000         -59.215444        -1611.33421
     35       2.00000         -59.215431        -1611.33385
     36       2.00000         -59.215411        -1611.33333
     37       2.00000         -52.074053        -1417.00707
     38       2.00000         -52.074029        -1417.00642
     39       2.00000         -52.074016        -1417.00608
     40       2.00000         -52.073991        -1417.00538
     41       2.00000         -52.073980        -1417.00509
     42       2.00000         -52.073978        -1417.00504
     43       2.00000         -52.073973        -1417.00491
     44       2.00000         -52.073973        -1417.00490
     45       2.00000         -52.073960        -1417.00455
     46       2.00000         -52.073952        -1417.00434
     47       2.00000         -52.073950        -1417.00426
     48       2.00000         -52.073948        -1417.00422
     49       2.00000         -52.073947        -1417.00419
     50       2.00000         -52.073943        -1417.00407
     51       2.00000         -52.073935        -1417.00387
     52       2.00000         -52.073928        -1417.00366
     53       2.00000         -52.073922        -1417.00352
     54       2.00000         -52.073905        -1417.00306
     55       2.00000         -52.073903        -1417.00299
     56       2.00000         -52.073901        -1417.00294
     57       2.00000         -52.073901        -1417.00293
     58       2.00000         -52.073888        -1417.00258
     59       2.00000         -52.073875        -1417.00223
     60       2.00000         -52.073855        -1417.00170
     61       2.00000         -23.533277         -640.37306
     62       2.00000         -23.533266         -640.37275
     63       2.00000         -23.533265         -640.37273
     64       2.00000         -23.533184         -640.37053
     65       2.00000         -19.115072         -520.14757
     66       2.00000         -19.115060         -520.14723
     67       2.00000         -19.115058         -520.14720
     68       2.00000         -19.114984         -520.14518
     69       2.00000         -19.114976         -520.14497
     70       2.00000         -19.114973         -520.14489
     71       2.00000         -19.114971         -520.14482
     72       2.00000         -19.114890         -520.14261
     73       2.00000         -19.114451         -520.13068
     74       2.00000         -19.114441         -520.13039
     75       2.00000         -19.114440         -520.13038
     76       2.00000         -19.114361         -520.12824
     77       2.00000         -12.109879         -329.52656
     78       2.00000         -12.109866         -329.52623
     79       2.00000         -12.109866         -329.52621
     80       2.00000         -12.109843         -329.52559
     81       2.00000         -12.109831         -329.52526
     82       2.00000         -12.109830         -329.52525
     83       2.00000         -12.109783         -329.52397
     84       2.00000         -12.109748         -329.52301
     85       2.00000         -12.109500         -329.51625
     86       2.00000         -12.109488         -329.51594
     87       2.00000         -12.109487         -329.51592
     88       2.00000         -12.109443         -329.51472
     89       2.00000         -12.109433         -329.51444
     90       2.00000         -12.109431         -329.51439
     91       2.00000         -12.109408         -329.51375
     92       2.00000         -12.109361         -329.51247
     93       2.00000         -12.109352         -329.51224
     94       2.00000         -12.109350         -329.51218
     95       2.00000         -12.109349         -329.51216
     96       2.00000         -12.109270         -329.51001
     97       2.00000          -7.861849         -213.93178
     98       2.00000          -7.861804         -213.93057
     99       2.00000          -7.861761         -213.92941
    100       2.00000          -7.861760         -213.92937
    101       2.00000          -7.861756         -213.92927
    102       2.00000          -7.861742         -213.92889
    103       2.00000          -7.861727         -213.92847
    104       2.00000          -7.861706         -213.92789
    105       2.00000          -5.636253         -153.37026
    106       2.00000          -5.636217         -153.36926
    107       2.00000          -5.636172         -153.36805
    108       2.00000          -5.636166         -153.36788
    109       2.00000          -5.636160         -153.36771
    110       2.00000          -5.636149         -153.36742
    111       2.00000          -5.636129         -153.36688
    112       2.00000          -5.636110         -153.36635
    113       2.00000          -5.636006         -153.36352
    114       2.00000          -5.635956         -153.36217
    115       2.00000          -5.635906         -153.36081
    116       2.00000          -5.635902         -153.36070
    117       2.00000          -5.635892         -153.36042
    118       2.00000          -5.635871         -153.35985
    119       2.00000          -5.635831         -153.35878
    120       2.00000          -5.635820         -153.35846
    121       2.00000          -5.635340         -153.34541
    122       2.00000          -5.635296         -153.34421
    123       2.00000          -5.635260         -153.34323
    124       2.00000          -5.635255         -153.34308
    125       2.00000          -5.635253         -153.34303
    126       2.00000          -5.635240         -153.34269
    127       2.00000          -5.635229         -153.34239
    128       2.00000          -5.635207         -153.34179
    129       2.00000          -3.273933          -89.08825
    130       2.00000          -3.273917          -89.08781
    131       2.00000          -3.273915          -89.08776
    132       2.00000          -3.273797          -89.08456
    133       2.00000          -2.020222          -54.97303
    134       2.00000          -2.020208          -54.97267
    135       2.00000          -2.020172          -54.97169
    136       2.00000          -2.020037          -54.96801
    137       2.00000          -2.019214          -54.94562
    138       2.00000          -2.019212          -54.94556
    139       2.00000          -2.019167          -54.94433
    140       2.00000          -2.019037          -54.94079
    141       2.00000          -2.013031          -54.77736
    142       2.00000          -2.013024          -54.77716
    143       2.00000          -2.013021          -54.77708
    144       2.00000          -2.012917          -54.77425
    145       2.00000          -1.969259          -53.58625
    146       2.00000          -1.969191          -53.58441
    147       2.00000          -1.969151          -53.58331
    148       2.00000          -1.969124          -53.58259
    149       2.00000          -1.968200          -53.55744
    150       2.00000          -1.968156          -53.55625
    151       2.00000          -1.968113          -53.55509
    152       2.00000          -1.968094          -53.55456
    153       2.00000          -1.967762          -53.54552
    154       2.00000          -1.967741          -53.54494
    155       2.00000          -1.967698          -53.54379
    156       2.00000          -1.967683          -53.54338
    157       2.00000          -1.967629          -53.54190
    158       2.00000          -1.967600          -53.54112
    159       2.00000          -1.967554          -53.53986
    160       2.00000          -1.967544          -53.53960
    161       2.00000          -1.967343          -53.53412
    162       2.00000          -1.967310          -53.53322
    163       2.00000          -1.967298          -53.53291
    164       2.00000          -1.967281          -53.53243
    165       2.00000          -1.967261          -53.53191
    166       2.00000          -1.967255          -53.53173
    167       2.00000          -1.967229          -53.53104
    168       2.00000          -1.967229          -53.53101
    169       2.00000          -1.967207          -53.53044
    170       2.00000          -1.967203          -53.53032
    171       2.00000          -1.967190          -53.52997
    172       2.00000          -1.967180          -53.52970
    173       2.00000          -1.967158          -53.52910
    174       2.00000          -1.967151          -53.52891
    175       2.00000          -1.967145          -53.52874
    176       2.00000          -1.967129          -53.52831
    177       2.00000          -1.966676          -53.51599
    178       2.00000          -1.966649          -53.51524
    179       2.00000          -1.966613          -53.51427
    180       2.00000          -1.966602          -53.51396
    181       2.00000          -1.966324          -53.50639
    182       2.00000          -1.966302          -53.50581
    183       2.00000          -1.966262          -53.50471
    184       2.00000          -1.966257          -53.50457
    185       2.00000          -0.759461          -20.66599
    186       2.00000          -0.740454          -20.14877
    187       2.00000          -0.720365          -19.60213
    188       2.00000          -0.718702          -19.55687
    189       2.00000          -0.652678          -17.76028
    190       2.00000          -0.640748          -17.43565
    191       2.00000          -0.639417          -17.39942
    192       2.00000          -0.627528          -17.07591
    193       2.00000          -0.418362          -11.38421
    194       2.00000          -0.410577          -11.17237
    195       2.00000          -0.389515          -10.59924
    196       2.00000          -0.376413          -10.24272
    197       2.00000          -0.370710          -10.08754
    198       2.00000          -0.369254          -10.04790
    199       2.00000          -0.366434           -9.97118
    200       2.00000          -0.366080           -9.96156
    201       2.00000          -0.364574           -9.92056
    202       2.00000          -0.362846           -9.87355
    203       2.00000          -0.361324           -9.83214
    204       2.00000          -0.351696           -9.57013
    205       2.00000          -0.342021           -9.30686
    206       2.00000          -0.330910           -9.00451
    207       2.00000          -0.324684           -8.83511
    208       2.00000          -0.316709           -8.61808
    209       2.00000          -0.316480           -8.61187
    210       2.00000          -0.306007           -8.32688
    211       2.00000          -0.288625           -7.85388
    212       2.00000          -0.286403           -7.79341
    213       2.00000          -0.285113           -7.75833
    214       2.00000          -0.280017           -7.61964
    215       2.00000          -0.279150           -7.59605
    216       2.00000          -0.277231           -7.54384
    217       2.00000          -0.276170           -7.51498
    218       2.00000          -0.275570           -7.49865
    219       2.00000          -0.273695           -7.44763
    220       2.00000          -0.270317           -7.35569
    221       2.00000          -0.265431           -7.22274
    222       2.00000          -0.263825           -7.17904
    223       2.00000          -0.263451           -7.16886
    224       2.00000          -0.257906           -7.01798
    225       2.00000          -0.224142           -6.09921
    226       2.00000          -0.215122           -5.85377
    227       2.00000          -0.212895           -5.79316
    228       0.00000          -0.164330           -4.47165
    229       0.00000          -0.152661           -4.15413
    230       0.00000          -0.135198           -3.67891
    231       0.00000          -0.129881           -3.53423
    232       0.00000          -0.128550           -3.49803
    233       0.00000          -0.125831           -3.42403
    234       0.00000          -0.115556           -3.14444
    235       0.00000          -0.114957           -3.12814
    236       0.00000          -0.082121           -2.23464
    237       0.00000          -0.037344           -1.01617
    238       0.00000          -0.030132           -0.81993
    239       0.00000          -0.002405           -0.06545
    240       0.00000           0.022227            0.60482
    241       0.00000           0.025850            0.70342
    242       0.00000           0.027377            0.74496
    243       0.00000           0.057648            1.56868
    244       0.00000           0.089399            2.43266
    245       0.00000           0.102135            2.77923
    246       0.00000           0.111462            3.03305
    247       0.00000           0.118620            3.22782
    248       0.00000           0.122846            3.34280
    249       0.00000           0.124969            3.40059
    250       0.00000           0.125593            3.41756
    251       0.00000           0.137651            3.74566
    252       0.00000           0.151811            4.13100
    253       0.00000           0.160090            4.35626
    254       0.00000           0.170853            4.64913
    255       0.00000           0.176851            4.81237
    256       0.00000           0.189526            5.15727
    257       0.00000           0.191960            5.22349
    258       0.00000           0.198821            5.41018
    259       0.00000           0.220186            5.99157
    260       0.00000           0.231463            6.29842
    261       0.00000           0.247575            6.73685
    262       0.00000           0.257884            7.01739
    263       0.00000           0.267252            7.27228
    264       0.00000           0.280287            7.62700
    265       0.00000           0.281180            7.65130
[...]
  |                x                y                z                |
  |                                                                   |
  |  x        -0.00018732       0.00000373       0.00003924           |
  |  y         0.00000373       0.00014175       0.00001089           |
  |  z         0.00003924       0.00001089      -0.00002722           |
  |                                                                   |
  |  Pressure:       0.00002426   [eV/A**3]                           |
  |                                                                   |
  +-------------------------------------------------------------------+

 * Warning: Stress tensor is anisotropic. Be aware that pressure is an isotropic quantity.


  Leaving Libmbd.

  Timings for VdW correction (Tkatchenko-Scheffler 2009 or later):
  | CPU time:       74.314 s, Wall clock time:       74.319 s.
  Removing unitary transformations (pure translations, rotations) from forces on atoms.
  Atomic forces before filtering:
  | Net force on center of mass :  -0.343142E-04  0.219809E-04  0.141389E-04 eV/A
  Atomic forces after filtering:
  | Net force on center of mass :  -0.696899E-18  0.696899E-18 -0.348449E-18 eV/A

  Energy and forces in a compact form:
  | Total energy uncorrected      :         -0.108791111528537E+07 eV
  | Total energy corrected        :         -0.108791111636512E+07 eV  <-- do not rely on this value for anything but (periodic) metals
  | Electronic free energy        :         -0.108791111744487E+07 eV
  Total atomic forces (unitary forces cleaned) [eV/Ang]:
  |    1          0.481969420278408E-04         -0.259037072417603E-02          0.238202226479762E-02
  |    2          0.108743599777532E-02         -0.238635556424891E-03         -0.156361637081040E-02
  |    3         -0.201600160310078E-02         -0.153373887139161E-02          0.192663273050096E-02
  |    4          0.504380790936255E-03         -0.709171116521726E-03         -0.152756736927074E-02
  |    5          0.118042259046680E-02         -0.144117836014110E-03         -0.168938774819125E-03
  |    6          0.222098553340222E-02          0.319068220530324E-02         -0.600163679674004E-03
  |    7         -0.202963793871614E-02          0.145921006133425E-02         -0.154416513239272E-03
  |    8         -0.364367577247668E-02         -0.239965260059139E-03          0.149211471521864E-02
  |    9         -0.187682957929230E-02          0.996767013907438E-04          0.214327463137675E-04
  |   10         -0.403298881058242E-03         -0.694327501271116E-03         -0.510803419607782E-03
  |   11          0.960961030478205E-03         -0.523831017263329E-03          0.686937839310775E-03
  |   12          0.396706088955749E-02          0.192458891509372E-02         -0.198363416872044E-02

  ------------------------------------ 
  Start decomposition of the XC Energy 
  ------------------------------------ 
  X and C from original XC functional choice 
  Hartree-Fock Energy :          0.000000000 Ha              0.000000000 eV
  X Energy            :      -1261.088161470 Ha         -34315.954850166 eV
  C Energy            :        -23.237113141 Ha           -632.314020339 eV
  Total XC Energy     :      -1284.325274611 Ha         -34948.268870506 eV
  ------------------------------------ 
  LDA X and C from self-consistent density 
  X Energy LDA        :      -1197.518333192 Ha         -32586.131810285 eV
  C Energy LDA        :        -42.068263864 Ha          -1144.735703244 eV
  ------------------------------------ 
  End decomposition of the XC Energy 
  ------------------------------------ 

------------------------------------------------------------
  Relaxation / MD: End force evaluation.       :  max(cpu_time)    wall_clock(cpu1)
  | Time for this force evaluation             :     1328.735 s        1329.478 s

------------------------------------------------------------
  Geometry optimization: Attempting to predict improved coordinates.

  +-------------------------------------------------------------------+
  | Generalized derivatives on lattice vectors [eV/A]                 |
  +-------------------------------------------------------------------+
  |lattice_vector      -0.00837418       0.00016656       0.00175425  |
  |lattice_vector       0.00016349       0.00622055       0.00047796  |
  |lattice_vector       0.00136566       0.00037906      -0.00094739  |
  +-------------------------------------------------------------------+
  | Forces on lattice vectors cleaned from atomic contributions [eV/A]|
  +-------------------------------------------------------------------+
  |lattice_vector       0.00837418      -0.00016656      -0.00175425  |
  |lattice_vector      -0.00016349      -0.00622055      -0.00047796  |
  |lattice_vector      -0.00136566      -0.00037906       0.00094739  |
  +-------------------------------------------------------------------+
  Symmetrized total atomic cartesian forces [eV/Ang]:
  |   1     0.4819694203E-04    -0.2590370724E-02     0.2382022265E-02
  |   2     0.1087435998E-02    -0.2386355564E-03    -0.1563616371E-02
  |   3    -0.2016001603E-02    -0.1533738871E-02     0.1926632731E-02
  |   4     0.5043807909E-03    -0.7091711165E-03    -0.1527567369E-02
  |   5     0.1180422590E-02    -0.1441178360E-03    -0.1689387748E-03
  |   6     0.2220985533E-02     0.3190682205E-02    -0.6001636797E-03
  |   7    -0.2029637939E-02     0.1459210061E-02    -0.1544165132E-03
  |   8    -0.3643675772E-02    -0.2399652601E-03     0.1492114715E-02
  |   9    -0.1876829579E-02     0.9967670139E-04     0.2143274631E-04
  |  10    -0.4032988811E-03    -0.6943275013E-03    -0.5108034196E-03
  |  11     0.9609610305E-03    -0.5238310173E-03     0.6869378393E-03
  |  12     0.3967060890E-02     0.1924588915E-02    -0.1983634169E-02
  +-------------------------------------------------------------------+
  | Symmetrized forces on lattice vectors cleaned from symmetrized
  | atomic contributions [eV/A]|
  +-------------------------------------------------------------------+
  |lattice_vector       0.00837418       0.00000000       0.00000000  |
  |lattice_vector       0.00000000      -0.00622055       0.00000000  |
  |lattice_vector       0.00000000       0.00000000       0.00094739  |
  +-------------------------------------------------------------------+
  Removing unitary transformations (pure translations, rotations) from forces on atoms.
  Atomic forces before filtering:
  | Net force on center of mass :  -0.139380E-17  0.696899E-18 -0.348449E-18 eV/A
  Atomic forces after filtering:
  | Net force on center of mass :  -0.696899E-18  0.696899E-18 -0.348449E-18 eV/A
  Net remaining forces (excluding translations, rotations) in present geometry:
  || Forces on atoms   || =   0.396706E-02 eV/A.
  || Forces on lattice || =   0.837418E-02 eV/A^3.
  Maximum force component is  0.837418E-02 eV/A.
  Present geometry is converged.

  Symmetry-reduced parameters:
  | atomic   1          0.502327201283894E+00
  | atomic   2          0.240394260759386E-02
  | atomic   3          0.215325996345250E-02
  | atomic   4          0.233194425085763E-02
  | atomic   5          0.237403463739092E-02
  | atomic   6          0.502648770889345E+00
  | atomic   7          0.250061588146178E-02
  | atomic   8          0.502374525086012E+00
  | atomic   9          0.216082677592135E-02
  | atomic  10          0.502451213020005E+00
  | atomic  11          0.502394237372200E+00
  | atomic  12          0.502627057520771E+00
  | atomic  13          0.614501246929688E+00
  | atomic  14          0.120770937073302E+00
  | atomic  15          0.405681478545225E+00
  | atomic  16          0.890261209772756E+00
  | atomic  17          0.884020492929149E+00
  | atomic  18          0.905517075165491E+00
  | atomic  19          0.114528511904417E+00
  | atomic  20          0.384059214436596E+00
  | atomic  21          0.599306195493521E+00
  | atomic  22          0.390354124160435E+00
  | atomic  23          0.620781083356445E+00
  | atomic  24          0.991110572967612E-01
  | atomic  25          0.390333255062683E+00
  | atomic  26          0.884091135409623E+00
  | atomic  27          0.599317600150335E+00
  | atomic  28          0.114505351336200E+00
  | atomic  29          0.120757511486193E+00
  | atomic  30          0.991167926101896E-01
  | atomic  31          0.890279242788636E+00
  | atomic  32          0.620759512713539E+00
  | atomic  33          0.405685851190656E+00
  | atomic  34          0.614467528169518E+00
  | atomic  35          0.384054804258218E+00
  | atomic  36          0.905515476849039E+00
  | lattice  1          0.584482477355175E+01
  | lattice  2          0.595436345282812E+01
  | lattice  3          0.750794374333184E+01
  Symmetry-reduced forces:
  | atomic   1          0.281702680773762E-03
  | atomic   2         -0.154240087693097E-01
  | atomic   3          0.178840891594644E-01
  | atomic   4          0.635587285944914E-02
  | atomic   5         -0.142092283572168E-02
  | atomic   6         -0.117395437481972E-01
  | atomic   7         -0.117831761133235E-01
  | atomic   8         -0.913243868199608E-02
  | atomic   9          0.144650501546630E-01
  | atomic  10          0.294801734216785E-02
  | atomic  11         -0.422266257801828E-02
  | atomic  12         -0.114688898726341E-01
  | atomic  13          0.689936320002051E-02
  | atomic  14         -0.858129975663091E-03
  | atomic  15         -0.126838281740940E-02
  | atomic  16          0.129812712673293E-01
  | atomic  17          0.189984815128466E-01
  | atomic  18         -0.450599514378345E-02
  | atomic  19         -0.118628781055486E-01
  | atomic  20          0.868866705920777E-02
  | atomic  21         -0.115935049444191E-02
  | atomic  22         -0.212966464217620E-01
  | atomic  23         -0.142884037444454E-02
  | atomic  24          0.112027133404591E-01
  | atomic  25         -0.109697400207823E-01
  | atomic  26          0.593511307859506E-03
  | atomic  27          0.160915853588870E-03
  | atomic  28         -0.235721129115491E-02
  | atomic  29         -0.413427829786221E-02
  | atomic  30         -0.383508333831675E-02
  | atomic  31          0.561664883735683E-02
  | atomic  32         -0.311908026465054E-02
  | atomic  33          0.515749065271123E-02
  | atomic  34          0.231867757654738E-01
  | atomic  35          0.114597018977522E-01
  | atomic  36         -0.148930137461039E-01
  | lattice  1          0.837418494741989E-02
  | lattice  2         -0.622054868992310E-02
  | lattice  3          0.947392670331474E-03
------------------------------------------------------------
  Final atomic structure:
                         x [A]             y [A]             z [A]
  lattice_vector         5.84482477        0.00000000        0.00000000
  lattice_vector         0.00000000        5.95436345        0.00000000
  lattice_vector         0.00000000        0.00000000        7.50794374

            atom        -2.90881030        0.01431395        0.01616655  Pd
            atom         0.01362981        0.01413587       -3.73408505  Pd
            atom         0.01461566       -2.96304294        0.01622337  Pd
            atom        -2.90808548       -2.96292557       -3.73424807  Pd
            atom        -2.25317266        0.71911405        3.04583372  Se
            atom        -0.64140400       -0.69058414       -0.70937248  Se
            atom         0.66939908        2.28682815       -3.00838654  Se
            atom         2.28155146       -2.25800726        0.74412024  Se
            atom         2.28142948       -0.69016351       -3.00830092  Se
            atom         0.66926371        0.71903411        0.74416330  Se
            atom        -0.64129860       -2.25813570        3.04586655  Se
            atom        -2.25336974        2.28680189       -0.70938448  Se

  Fractional coordinates:
                         L1                L2                L3
       atom_frac        -0.49767280        0.00240394        0.00215326  Pd
       atom_frac         0.00233194        0.00237403       -0.49735123  Pd
       atom_frac         0.00250062       -0.49762547        0.00216083  Pd
       atom_frac        -0.49754879       -0.49760576       -0.49737294  Pd
       atom_frac        -0.38549875        0.12077094        0.40568148  Se
       atom_frac        -0.10973879       -0.11597951       -0.09448292  Se
       atom_frac         0.11452851        0.38405921       -0.40069380  Se
       atom_frac         0.39035412       -0.37921892        0.09911106  Se
       atom_frac         0.39033326       -0.11590886       -0.40068240  Se
       atom_frac         0.11450535        0.12075751        0.09911679  Se
       atom_frac        -0.10972076       -0.37924049        0.40568585  Se
       atom_frac        -0.38553247        0.38405480       -0.09448452  Se
------------------------------------------------------------

------------------------------------------------------------------------------
  Final output of selected total energy values:

  The following output summarizes some interesting total energy values
  at the end of a run (AFTER all relaxation, molecular dynamics, etc.).

  | Total energy of the DFT / Hartree-Fock s.c.f. calculation      :       -1087911.115285375 eV
  | Final zero-broadening corrected energy (caution - metals only) :       -1087911.116365120 eV
  | For reference only, the value of 1 Hartree used in FHI-aims is :             27.211384500 eV
  | For reference only, the overall average (free atom contribution
  | + realspace contribution) of the electrostatic potential after
  | s.c.f. convergence is                                          :            -16.957263332 eV

  Before relying on these values, please be sure to understand exactly which
  total energy value is referred to by a given number. Different objects may
  all carry the same name 'total energy'. Definitions:

  Total energy of the DFT / Hartree-Fock s.c.f. calculation:
  | Note that this energy does not include ANY quantities calculated after the
  | s.c.f. cycle, in particular not ANY RPA, MP2, etc. many-body perturbation terms.

  Final zero-broadening corrected energy:
  | For metallic systems only, a broadening of the occupation numbers at the Fermi
  | level can be extrapolated back to zero broadening by an electron-gas inspired
  | formula. For all systems that are not real metals, this value can be
  | meaningless and should be avoided.

------------------------------------------------------------------------------
  Methods described in the following list of references were used in this FHI-aims run.
  If you publish the results, please make sure to cite these reference if they apply.
  FHI-aims is an academic code, and for our developers (often, Ph.D. students
  and postdocs), scientific credit in the community is essential.
  Thank you for helping us!

  For any use of FHI-aims, please cite:

    Volker Blum, Ralf Gehrke, Felix Hanke, Paula Havu, Ville Havu,
    Xinguo Ren, Karsten Reuter, and Matthias Scheffler
    'Ab initio molecular simulations with numeric atom-centered orbitals'
    Computer Physics Communications 180, 2175-2196 (2009)
    http://dx.doi.org/10.1016/j.cpc.2009.06.022


  For the analytical stress tensor used in your run, please cite:

    Franz Knuth, Christian Carbogno, Viktor Atalla, Volker Blum, Matthias Scheffler
    'All-electron formalism for total energy strain derivatives and
    stress tensor components for numeric atom-centered orbitals'
    Computer Physics Communications 190, 33-50 (2015).
    http://dx.doi.org/10.1016/j.cpc.2015.01.003


  The provided symmetry information was generated with SPGlib:

    Atsushi Togo, Yusuke Seto, Dimitar Pashov
    SPGlib 1.7.3 obtained from http://spglib.sourceforge.net
    Copyright (C) 2008 Atsushi Togo


  The ELSI infrastructure was used in your run to solve the Kohn-Sham electronic structure.
  Please check out http://elsi-interchange.org to learn more.
  If scalability is important for your project, please acknowledge ELSI by citing:

    V. W-z. Yu, F. Corsetti, A. Garcia, W. P. Huhn, M. Jacquelin, W. Jia,
    B. Lange, L. Lin, J. Lu, W. Mi, A. Seifitokaldani, A. Vazquez-Mayagoitia,
    C. Yang, H. Yang, and V. Blum
    'ELSI: A unified software interface for Kohn-Sham electronic structure solvers'
    Computer Physics Communications 222, 267-285 (2018).
    http://dx.doi.org/10.1016/j.cpc.2017.09.007


  For the real-space grid partitioning and parallelization used in this calculation, please cite:

    Ville Havu, Volker Blum, Paula Havu, and Matthias Scheffler,
    'Efficient O(N) integration for all-electron electronic structure calculation'
    'using numerically tabulated basis functions'
    Journal of Computational Physics 228, 8367-8379 (2009).
    http://dx.doi.org/10.1016/j.jcp.2009.08.008

  Of course, there are many other important community references, e.g., those cited in the
  above references. Our list is limited to references that describe implementations in the
  FHI-aims code. The reason is purely practical (length of this list) - please credit others as well.

------------------------------------------------------------
          Leaving FHI-aims.
          Date     :  20200420, Time     :  232611.115

          Computational steps:
          | Number of self-consistency cycles          :          109
          | Number of SCF (re)initializations          :            5
          | Number of relaxation steps                 :            4

          Detailed time accounting                     :  max(cpu_time)    wall_clock(cpu1)
          | Total time                                 :     9180.255 s        9182.846 s
          | Preparation time                           :        0.553 s           0.589 s
          | Boundary condition initalization           :        1.272 s           1.273 s
          | Grid partitioning                          :        1.741 s           1.741 s
          | Preloading free-atom quantities on grid    :        4.634 s           4.635 s
          | Free-atom superposition energy             :        0.716 s           0.716 s
          | Total time for integrations                :      310.267 s         310.286 s
          | Total time for solution of K.-S. equations :     5961.892 s        5971.257 s
          | Total time for EV reorthonormalization     :       72.024 s          71.281 s
          | Total time for density & force components  :     2103.049 s        2103.100 s
          | Total time for mixing & preconditioning    :       78.807 s          78.913 s
          | Total time for Hartree multipole update    :        0.504 s           0.489 s
          | Total time for Hartree multipole sum       :      248.648 s         248.643 s
          | Total time for total energy evaluation     :        8.691 s           8.976 s
          | Total time for scaled ZORA corrections     :        0.000 s           0.000 s
          | Total time for vdW correction              :      371.728 s         371.754 s

          Partial memory accounting:
          | Residual value for overall tracked memory usage across tasks:     0.000000 MB (should be 0.000000 MB)
          | Peak values for overall tracked memory usage:
          |   Minimum:     1621.989 MB (on task 19 after allocating d_wave)
          |   Maximum:     1626.995 MB (on task 14 after allocating d_wave)
          |   Average:     1625.445 MB
          | Largest tracked array allocation:
          |   Minimum:      787.308 MB (KS_eigenvector_complex on task  0)
          |   Maximum:      789.407 MB (KS_eigenvector_complex on task  1)
          |   Average:      788.882 MB
          Note:  These values currently only include a subset of arrays which are explicitly tracked.
          The "true" memory usage will be greater.

          Have a nice day.
------------------------------------------------------------
