------------------------------------------------------------
          Invoking FHI-aims ...

          When using FHI-aims, please cite the following reference:

          Volker Blum, Ralf Gehrke, Felix Hanke, Paula Havu,
          Ville Havu, Xinguo Ren, Karsten Reuter, and Matthias Scheffler,
          'Ab Initio Molecular Simulations with Numeric Atom-Centered Orbitals',
          Computer Physics Communications 180, 2175-2196 (2009)

          For any questions about FHI-aims, please visit the aimsclub website
          with its forums and wiki. Contributions to both the forums and the
          wiki are warmly encouraged - they are for you, and everyone is welcome there.

------------------------------------------------------------



  Date     :  20200319, Time     :  194120.212
  Time zero on CPU 1             :   0.629010000000000E-01  s.
  Internal wall clock time zero  :           353878880.212  s.

  FHI-aims created a unique identifier for this run for later identification
  aims_uuid : AA40E646-2DE2-4FAF-AB90-A58EA4FD6D5C

  Build configuration of the current instance of FHI-aims
  -------------------------------------------------------
  FHI-aims version      : 200112
  Commit number         : 23daeca3f
  CMake host system     : Linux-3.10.0-693.21.1.el7.x86_64
  CMake version         : 3.13.3
  Fortran compiler      : /sw/installed/impi/2018.4.274-iccifort-2019.1.144-GCC-8.2.0-2.31.1/bin64/mpiifort (Intel) version 19.0.0.20181018
  Fortran compiler flags: -O3 -ip -fp-model precise
  C compiler            : /sw/installed/impi/2018.4.274-iccifort-2019.1.144-GCC-8.2.0-2.31.1/bin64/mpiicc (Intel) version 19.0.0.20181018
  C compiler flags      : -O3 -ip -fp-model precise
  Architecture          :
  Using MPI
  Using Scalapack
  Using C files
  Using LibXC
  Using SPGlib
  Using i-PI
  Using RLSY
  Linking against: /sw/installed/imkl/2019.1.144-iimpi-2019a/mkl/lib/intel64/libmkl_intel_lp64.so
                   /sw/installed/imkl/2019.1.144-iimpi-2019a/mkl/lib/intel64/libmkl_sequential.so
                   /sw/installed/imkl/2019.1.144-iimpi-2019a/mkl/lib/intel64/libmkl_core.so
                   /sw/installed/imkl/2019.1.144-iimpi-2019a/mkl/lib/intel64/libmkl_blacs_intelmpi_lp64.so
                   /sw/installed/imkl/2019.1.144-iimpi-2019a/mkl/lib/intel64/libmkl_scalapack_lp64.so

  Using       24 parallel tasks.
  Task        0 on host taurusi6344.taurus.hrsk.tu-dresden.de reporting.
  Task        1 on host taurusi6344.taurus.hrsk.tu-dresden.de reporting.
  Task        2 on host taurusi6344.taurus.hrsk.tu-dresden.de reporting.
  Task        3 on host taurusi6344.taurus.hrsk.tu-dresden.de reporting.
  Task        4 on host taurusi6344.taurus.hrsk.tu-dresden.de reporting.
  Task        5 on host taurusi6344.taurus.hrsk.tu-dresden.de reporting.
  Task        6 on host taurusi6344.taurus.hrsk.tu-dresden.de reporting.
  Task        7 on host taurusi6344.taurus.hrsk.tu-dresden.de reporting.
  Task        8 on host taurusi6344.taurus.hrsk.tu-dresden.de reporting.
  Task        9 on host taurusi6344.taurus.hrsk.tu-dresden.de reporting.
  Task       10 on host taurusi6344.taurus.hrsk.tu-dresden.de reporting.
  Task       11 on host taurusi6344.taurus.hrsk.tu-dresden.de reporting.
  Task       12 on host taurusi6344.taurus.hrsk.tu-dresden.de reporting.
  Task       13 on host taurusi6344.taurus.hrsk.tu-dresden.de reporting.
  Task       14 on host taurusi6344.taurus.hrsk.tu-dresden.de reporting.
  Task       15 on host taurusi6344.taurus.hrsk.tu-dresden.de reporting.
  Task       16 on host taurusi6344.taurus.hrsk.tu-dresden.de reporting.
  Task       17 on host taurusi6344.taurus.hrsk.tu-dresden.de reporting.
  Task       18 on host taurusi6344.taurus.hrsk.tu-dresden.de reporting.
  Task       19 on host taurusi6344.taurus.hrsk.tu-dresden.de reporting.
  Task       20 on host taurusi6344.taurus.hrsk.tu-dresden.de reporting.
  Task       21 on host taurusi6344.taurus.hrsk.tu-dresden.de reporting.
  Task       22 on host taurusi6344.taurus.hrsk.tu-dresden.de reporting.
  Task       23 on host taurusi6344.taurus.hrsk.tu-dresden.de reporting.

  Performing system and environment tests:
  | Environment variable OMP_NUM_THREADS correctly set to 1.
  | Maximum stacksize for task 0: unlimited
  | Maximum stacksize for task 1: unlimited
  | Maximum stacksize for task 2: unlimited
  | Maximum stacksize for task 3: unlimited
  | Maximum stacksize for task 4: unlimited
  | Maximum stacksize for task 5: unlimited
  | Maximum stacksize for task 6: unlimited
  | Maximum stacksize for task 7: unlimited
  | Maximum stacksize for task 8: unlimited
  | Maximum stacksize for task 9: unlimited
  | Maximum stacksize for task 10: unlimited
  | Maximum stacksize for task 11: unlimited
  | Maximum stacksize for task 12: unlimited
  | Maximum stacksize for task 13: unlimited
  | Maximum stacksize for task 14: unlimited
  | Maximum stacksize for task 15: unlimited
  | Maximum stacksize for task 16: unlimited
  | Maximum stacksize for task 17: unlimited
  | Maximum stacksize for task 18: unlimited
  | Maximum stacksize for task 19: unlimited
  | Maximum stacksize for task 20: unlimited
  | Maximum stacksize for task 21: unlimited
  | Maximum stacksize for task 22: unlimited
  | Maximum stacksize for task 23: unlimited
  | Current stacksize for task 0: unlimited
  | Current stacksize for task 1: unlimited
  | Current stacksize for task 2: unlimited
  | Current stacksize for task 3: unlimited
  | Current stacksize for task 4: unlimited
  | Current stacksize for task 5: unlimited
  | Current stacksize for task 6: unlimited
  | Current stacksize for task 7: unlimited
  | Current stacksize for task 8: unlimited
  | Current stacksize for task 9: unlimited
  | Current stacksize for task 10: unlimited
  | Current stacksize for task 11: unlimited
  | Current stacksize for task 12: unlimited
  | Current stacksize for task 13: unlimited
  | Current stacksize for task 14: unlimited
  | Current stacksize for task 15: unlimited
  | Current stacksize for task 16: unlimited
  | Current stacksize for task 17: unlimited
  | Current stacksize for task 18: unlimited
  | Current stacksize for task 19: unlimited
  | Current stacksize for task 20: unlimited
  | Current stacksize for task 21: unlimited
  | Current stacksize for task 22: unlimited
  | Current stacksize for task 23: unlimited
  | Checking for scalapack...
  | Testing pdtran()...
  | All pdtran() tests passed.

  Obtaining array dimensions for all initial allocations:
  
  -----------------------------------------------------------------------
  Parsing control.in (first pass over file, find array dimensions only).
  The contents of control.in will be repeated verbatim below
  unless switched off by setting 'verbatim_writeout .false.' .
  in the first line of control.in .
  -----------------------------------------------------------------------
  
  #===============================================================================
  # FHI-aims file: ./control.in
  # Created using the Atomic Simulation Environment (ASE)
  # Thu Mar 19 17:13:23 2020
  #===============================================================================
  xc                                 pbe
  # include_spin_orbit
  # vdw_correction_hirshfeld
  # many_body_dispersion_nl 	 beta=0.81
  spin                               none
  k_grid 	 	 20 20 20
  relativistic                       atomic_zora scalar
  ### SCF settings
  adjust_scf 	 always 	 3
  # frozen_core_scf 	 .true.
  # charge_mix_param  0.05
  # occupation_type 	 gaussian 	 0.01
  # sc_accuracy_eev   1E-3 	 	 # sum of eigenvalues convergence
  # sc_accuracy_etot  1E-6 	 	 # total energy convergence
  # sc_accuracy_rho   1E-3 	 	 # electron density convergence
  # elsi_restart 	 read_and_write 	 1000
  #===============================================================================
  
  ################################################################################
  #
  #  FHI-aims code project
  # Volker Blum, Fritz Haber Institute Berlin, 2009
  #
  #  Suggested "tight" defaults for C atom (to be pasted into control.in file)
  #
  ################################################################################
    species        C
  #     global species definitions
      nucleus             6
      mass                12.0107
  #
      l_hartree           6
  #
      cut_pot             4.0  2.0  1.0
      basis_dep_cutoff    1e-4
  #
      radial_base         34 7.0
      radial_multiplier   2
      angular_grids specified
        division   0.2187   50
        division   0.4416  110
        division   0.6335  194
        division   0.7727  302
        division   0.8772  434
  #      division   0.9334  590
  #      division   0.9924  770
  #      division   1.0230  974
  #      division   1.5020 1202
  #     outer_grid  974
        outer_grid  434
  ################################################################################
  #
  #  Definition of "minimal" basis
  #
  ################################################################################
  #     valence basis states
      valence      2  s   2.
      valence      2  p   2.
  #     ion occupancy
      ion_occ      2  s   1.
      ion_occ      2  p   1.
  ################################################################################
  #
  #  Suggested additional basis functions. For production calculations,
  #  uncomment them one after another (the most important basis functions are
  #  listed first).
  #
  #  Constructed for dimers: 1.0 A, 1.25 A, 1.5 A, 2.0 A, 3.0 A
  #
  ################################################################################
  #  "First tier" - improvements: -1214.57 meV to -155.61 meV
       hydro 2 p 1.7
       hydro 3 d 6
       hydro 2 s 4.9
  #  "Second tier" - improvements: -67.75 meV to -5.23 meV
       hydro 4 f 9.8
       hydro 3 p 5.2
       hydro 3 s 4.3
       hydro 5 g 14.4
       hydro 3 d 6.2
  #  "Third tier" - improvements: -2.43 meV to -0.60 meV
  #     hydro 2 p 5.6
  #     hydro 2 s 1.4
  #     hydro 3 d 4.9
  #     hydro 4 f 11.2
  #  "Fourth tier" - improvements: -0.39 meV to -0.18 meV
  #     hydro 2 p 2.1
  #     hydro 5 g 16.4
  #     hydro 4 d 13.2
  #     hydro 3 s 13.6
  #     hydro 4 f 17.6
  #  Further basis functions - improvements: -0.08 meV and below
  #     hydro 3 s 2
  #     hydro 3 p 6
  #     hydro 4 d 20
  ################################################################################
  #
  # For methods that use the localized form of the "resolution of identity" for
  # the two-electron Coulomb operator (RI_method LVL), particularly Hartree-Fock and
  # hybrid density functional calculations, the highest accuracy can be obtained by
  # uncommenting the line beginning with "for_aux"  below, thus adding an extra g radial
  # function to the construction of the product basis set for the expansion.
  # See Ref. New J. Phys. 17, 093020 (2015) for more information, particularly Figs. 1 and 6.
  #
  ################################################################################
  #
  # for_aux hydro 5 g 6.0
  
  -----------------------------------------------------------------------
  Completed first pass over input file control.in .
  -----------------------------------------------------------------------
  
  
  -----------------------------------------------------------------------
  Parsing geometry.in (first pass over file, find array dimensions only).
  The contents of geometry.in will be repeated verbatim below
  unless switched off by setting 'verbatim_writeout .false.' .
  in the first line of geometry.in .
  -----------------------------------------------------------------------
  
  #=======================================================
  # FHI-aims file: ./geometry.in
  # Created using the Atomic Simulation Environment (ASE)
  # Thu Mar 19 17:13:23 2020
  #=======================================================
  lattice_vector 1.2300000000000000 -2.1304224899999999 0.0000000000000000
  lattice_vector 1.2300000000000000 2.1304224899999999 0.0000000000000000
  lattice_vector 0.0000000000000000 0.0000000000000000 6.7100000000000000
  atom_frac -0.0000000000000000 0.0000000000000000 0.2500000000000000 C
  atom_frac -0.0000000000000000 0.0000000000000000 -0.2500000000000000 C
  atom_frac 0.3333333333333333 -0.3333333333333333 0.2500000000000000 C
  atom_frac -0.3333333333333333 0.3333333333333333 -0.2500000000000000 C
  
  -----------------------------------------------------------------------
  Completed first pass over input file geometry.in .
  -----------------------------------------------------------------------
  

  Basic array size parameters:
  | Number of species                 :        1
  | Number of atoms                   :        4
  | Number of lattice vectors         :        3
  | Max. basis fn. angular momentum   :        4
  | Max. atomic/ionic basis occupied n:        2
  | Max. number of basis fn. types    :        2
  | Max. radial fns per species/type  :        8
  | Max. logarithmic grid size        :     1277
  | Max. radial integration grid size :       69
  | Max. angular integration grid size:      434
  | Max. angular grid division number :        8
  | Radial grid for Hartree potential :     1277
  | Number of spin channels           :        1

------------------------------------------------------------
          Reading file control.in.
------------------------------------------------------------
  XC: Using PBE gradient-corrected functionals.
  Spin treatment: No spin polarisation.
  Found k-point grid:        20        20        20
  Scalar relativistic treatment of kinetic energy: on-site free-atom approximation to ZORA.
  S.C.F. convergence parameters will be adjusted in iteration number     3 of each new s.c.f. cycle.
 
  Reading configuration options for species C                   .
  | Found nuclear charge :   6.0000
  | Found atomic mass :    12.0107000000000      amu
  | Found l_max for Hartree potential  :   6
  | Found cutoff potl. onset [A], width [A], scale factor :    4.00000    2.00000    1.00000
  | Threshold for basis-dependent cutoff potential is   0.100000E-03
  | Found data for basic radial integration grid :    34 points, outermost radius =    7.000 A
  | Found multiplier for basic radial grid :   2
  | Found angular grid specification: user-specified.
  | Specified grid contains     6 separate shells.
  | Check grid settings after all constraints further below.
  | Found free-atom valence shell :  2 s   2.000
  | Found free-atom valence shell :  2 p   2.000
  | No ionic wave fns used. Skipping ion_occ.
  | No ionic wave fns used. Skipping ion_occ.
  | Found hydrogenic basis function :  2 p   1.700
  | Found hydrogenic basis function :  3 d   6.000
  | Found hydrogenic basis function :  2 s   4.900
  | Found hydrogenic basis function :  4 f   9.800
  | Found hydrogenic basis function :  3 p   5.200
  | Found hydrogenic basis function :  3 s   4.300
  | Found hydrogenic basis function :  5 g  14.400
  | Found hydrogenic basis function :  3 d   6.200
  Species C                   : Missing cutoff potential type.
  Defaulting to exp(1/x)/(1-x)^2 type cutoff potential.
  Species C : No 'logarithmic' tag. Using default grid for free atom:
  | Default logarithmic grid data [bohr] : 0.1000E-03 0.1000E+03 0.1012E+01
  Species C : On-site basis accuracy parameter (for Gram-Schmidt orthonormalisation) not specified.
  Using default value basis_acc =  0.1000000E-03.
  Species C                   : Using default innermost maximum threshold i_radial=  2 for radial functions.
  Species C                   : Default cutoff onset for free atom density etc. : 0.40000000E+01 AA.
  Species C                   : Basic radial grid will be enhanced according to radial_multiplier =   2, to contain    69 grid points.
 
  Finished reading input file 'control.in'. Consistency checks are next.
 
  MPI_IN_PLACE appears to work with this MPI implementation.
  | Keeping use_mpi_in_place .true. (see manual).
  Target number of points in a grid batch is not set. Defaulting to  100
  Method for grid partitioning is not set. Defaulting to parallel hash+maxmin partitioning.
  Batch size limit is not set. Defaulting to    200
  By default, will store active basis functions for each batch.
  If in need of memory, prune_basis_once .false. can be used to disable this option.
  communication_type for Hartree potential was not specified.
  Defaulting to calc_hartree .
  Defaulting to Pulay charge density mixer.
  Pulay mixer: Number of relevant iterations not set.
  Defaulting to    8 iterations.
  Pulay mixer: Number of initial linear mixing iterations not set.
  Defaulting to    0 iterations.
  Work space size for distributed Hartree potential not set.
  Defaulting to   0.200000E+03 MB.
  Mixing parameter for charge density mixing has not been set.
  Using default: charge_mix_param =     0.0500.
  The mixing parameter will be adjusted in iteration number     3 of each s.c.f. cycle (i.e., each geometry step).
  Algorithm-dependent basis array size parameters:
  | n_max_pulay                         :        8
  Maximum number of self-consistency iterations not provided.
  Presetting  1000 iterations.
  Presetting      1001 iterations before the initial mixing cycle
  is restarted anyway using the sc_init_iter criterion / keyword.
  Presetting a factor      1.000 between actual scf density residual
  and density convergence criterion sc_accuracy_rho below which sc_init_iter
  takes no effect.
 * No s.c.f. convergence criteria (sc_accuracy_*) were provided in control.in.
 * The run will proceed with a reasonable default guess, but please check whether.
 * the s.c.f. cycles seem to take too much or too little time.
  Calculation of forces was not defined in control.in. No forces will be calculated.
  Geometry relaxation not requested: no relaxation will be performed.
 * Notice: The s.c.f. convergence criterion sc_accuracy_rho was not provided.
 * We used to stop in this case, and ask the user to provide reasonable
 * scf convergence criteria. However, this led some users to employ criteria
 * that led to extremely long run times, e.g., for simple relaxation.
 * We now preset a default value for sc_accuracy_rho if it is not set.
 * You may still wish to check if this setting is too tight or too loose for your needs.
 * Based on n_atoms, FHI-aims chose sc_accuracy_rho =  0.100000E-05 .
  No accuracy limit for integral partition fn. given. Defaulting to  0.1000E-14.
  No threshold value for u(r) in integrations given. Defaulting to  0.1000E-05.
  No occupation type (smearing scheme) given. Defaulting to Gaussian broadening, width =  0.1000E-01 eV.
  The width will be adjusted in iteration number     3 of each s.c.f. cycle (i.e., each geometry step).
  S.C.F. convergence parameters will be adjusted in iteration number     3 of the first full s.c.f. cycle only.
  No accuracy for occupation numbers given. Defaulting to  0.1000E-12.
  No threshold value for occupation numbers given. Defaulting to  0.0000E+00.
  No accuracy for fermi level given. Defaulting to  0.1000E-19.
  Maximum # of iterations to find E_F not set. Defaulting to  200.
  Preferred method for the eigenvalue solver ('KS_method') not specified in 'control.in'.
  Defaulting to serial version, LAPACK (via ELSI), since more k-points than CPUs available.
  Will not use alltoall communication since running on < 1024 CPUs.
  Threshold for basis singularities not set.
  Default threshold for basis singularities:  0.1000E-04
  partition_type (choice of integration weights) for integrals was not specified.
  | Using a version of the partition function of Stratmann and coworkers ('stratmann_sparse').
  | At each grid point, the set of atoms used to build the partition table is smoothly restricted to
  | only those atoms whose free-atom density would be non-zero at that grid point.
  Partitioning for Hartree potential was not defined. Using partition_type for integrals.
  | Adjusted default value of keyword multip_moments_threshold to:       0.10000000E-11
  | This value may affect high angular momentum components of the Hartree potential in periodic systems.
  Angular momentum expansion for Kerker preconditioner not set explicitly.
  | Using default value of   0
  No explicit requirement for turning off preconditioner.
  | By default, it will be turned off when the charge convergence reaches
  | sc_accuracy_rho  =   0.100000E-05
  No special mixing parameter while Kerker preconditioner is on.
  Using default: charge_mix_param =     0.0500.
  No q(lm)/r^(l+1) cutoff set for long-range Hartree potential.
  | Using default value of  0.100000E-09 .
  | Verify using the multipole_threshold keyword.
  Defaulting to new monopole extrapolation.
  Density update method: automatic selection selected.
  Using density matrix based charge density update.
  Using density matrix based charge density update.
  Using packed matrix style: index .
  Defaulting to use time-reversal symmetry for k-point grid.
  Charge integration errors on the 3D integration grid will be compensated
  by explicit normalization and distribution of residual charges.
  Use the "compensate_multipole_errors" flag to change this behaviour.
------------------------------------------------------------


------------------------------------------------------------
          Reading geometry description geometry.in.
------------------------------------------------------------
  Input structure read successfully.
  The structure contains        4 atoms,  and a total of         24.000 electrons.

  Input geometry:
  | Unit cell:
  |        1.23000000       -2.13042249        0.00000000
  |        1.23000000        2.13042249        0.00000000
  |        0.00000000        0.00000000        6.71000000
  | Atomic structure:
  |       Atom                x [A]            y [A]            z [A]
  |    1: Species C             0.00000000        0.00000000        1.67750000
  |    2: Species C             0.00000000        0.00000000       -1.67750000
  |    3: Species C             0.00000000       -1.42028166        1.67750000
  |    4: Species C             0.00000000        1.42028166       -1.67750000

  Lattice parameters for 3D lattice (in Angstroms) :     2.460000    2.460000    6.710000
  Angle(s) between unit vectors (in degrees)       :    90.000000   90.000000  120.000000

  | The smallest distance between any two atoms is         1.42028166 AA.
  | The first atom of this pair is atom number                      1 .
  | The second atom of this pair is atom number                     3 .
  | Wigner-Seitz cell of the first atom image           0     0     0 .
  | (The Wigner-Seitz cell of the second atom is 0 0 0  by definition.)

  Symmetry information by spglib:
  | Precision set to  0.1E-04
  | Number of Operations  : 24
  | Space group           : 194
  | International         : P6_3/mmc
  | Schoenflies           : D6h^4

  Quantities derived from the lattice vectors:
  | Reciprocal lattice vector 1:  2.554140 -1.474634  0.000000
  | Reciprocal lattice vector 2:  2.554140  1.474634  0.000000
  | Reciprocal lattice vector 3:  0.000000  0.000000  0.936391
  | Unit cell volume                               :   0.351660E+02  A^3

  Range separation radius for Ewald summation (hartree_convergence_parameter):      2.82092147 bohr.

  Fractional coordinates:
                         L1                L2                L3
       atom_frac         0.00000000        0.00000000        0.25000000  C
       atom_frac         0.00000000        0.00000000       -0.25000000  C
       atom_frac         0.33333333       -0.33333333        0.25000000  C
       atom_frac        -0.33333333        0.33333333       -0.25000000  C

  Number of empty states per atom not set in control.in - providing a guess from actual geometry.
  | Total number of empty states used during s.c.f. cycle:       12
  If you use a very high smearing, use empty_states (per atom!) in control.in to increase this value.

  Structure-dependent array size parameters: 
  | Maximum number of distinct radial functions  :       11
  | Maximum number of basis functions            :      156
  | Number of Kohn-Sham states (occupied + empty):       24
------------------------------------------------------------

------------------------------------------------------------
          Preparing all fixed parts of the calculation.
------------------------------------------------------------
  Determining machine precision:
    2.225073858507201E-308
  Setting up grids for atomic and cluster calculations.

  Creating wave function, potential, and density for free atoms.

  Species: C

  List of occupied orbitals and eigenvalues:
    n    l              occ      energy [Ha]    energy [eV]
    1    0           2.0000       -10.049212      -273.4530
    2    0           2.0000        -0.504761       -13.7352
    2    1           2.0000        -0.193631        -5.2690

  Creating fixed part of basis set: Ionic, confined, hydrogenic.
 
  C                    hydrogenic:
 
  List of hydrogenic basis orbitals: 
    n    l      effective z      eigenvalue [eV]  inner max. [A]     outer max. [A]     outer radius [A]   
    2    1         1.700000        -9.8152           1.245706           1.245706           5.401630
    3    2         6.000000       -54.4226           0.792453           0.792453           4.178599
    2    0         4.900000       -81.6681           0.082559           0.562749           3.353238
    4    3         9.800000       -81.6681           0.863254           0.863254           4.028125
    3    1         5.200000       -40.8774           0.305389           1.215618           4.898362
    3    0         4.300000       -27.9508           0.091041           1.610311           5.401630
    5    4        14.400000      -112.8510           0.917666           0.917666           3.883070
    3    2         6.200000       -58.1113           0.763917           0.763917           4.077671
 

  Adding cutoff potential to free-atom effective potential.
  Creating atomic-like basis functions for current effective potential.

  Species C                   :

  List of atomic basis orbitals and eigenvalues:
    n    l      energy [Ha]    energy [eV]    outer radius [A]
    1    0       -10.049212      -273.4530       1.934409
    2    0        -0.504761       -13.7352       5.271162
    2    1        -0.193631        -5.2690       5.401630

  Assembling full basis from fixed parts.
  | Species C :   atomic orbital   1 s accepted.
  | Species C :    hydro orbital   2 s accepted.
  | Species C :   atomic orbital   2 s accepted.
  | Species C :    hydro orbital   3 s accepted.
  | Species C :    hydro orbital   3 p accepted.
  | Species C :   atomic orbital   2 p accepted.
  | Species C :    hydro orbital   2 p accepted.
  | Species C :    hydro orbital   3 d accepted.
  | Species C :    hydro orbital   3 d accepted.
  | Species C :    hydro orbital   4 f accepted.
  | Species C :    hydro orbital   5 g accepted.
 
  Basis size parameters after reduction:
  | Total number of radial functions:       11
  | Total number of basis functions :      156
 
  Per-task memory consumption for arrays in subroutine allocate_ext:
  |           3.600012MB.
  Testing on-site integration grid accuracy.
  |  Species  Function  <phi|h_atom|phi> (log., in eV)  <phi|h_atom|phi> (rad., in eV)
           1        1               -273.4529725981               -273.4529710451
           1        2                -10.7721037329                -10.7721022102
           1        3                 17.6044132585                 17.6044162052
           1        4                 53.7706460564                 53.7706913681
           1        5                 15.0973290351                 15.0973256011
           1        6                  3.8545134677                  3.8545724657
           1        7                 12.1156992586                 12.1182024423
           1        8                 29.4352039288                 29.4352041805
           1        9                 54.8741144697                 54.8740268719
           1       10                 59.3556032036                 59.3556031370
           1       11                 93.4551837140                 93.4551837996

  Preparing densities etc. for the partition functions (integrals / Hartree potential).

  Preparations completed.
  max(cpu_time)          :      0.149 s.
  Wall clock time (cpu1) :      0.174 s.
------------------------------------------------------------

------------------------------------------------------------
          Begin self-consistency loop: Initialization.

          Date     :  20200319, Time     :  194120.698
------------------------------------------------------------

  Initializing index lists of integration centers etc. from given atomic structure:
  Mapping all atomic coordinates to central unit cell.

  Initializing the k-points
  Using symmetry for reducing the k-points
  | k-points reduced from:     8000 to     4004
  | Number of k-points                             :      4004
  The eigenvectors in the calculations are COMPLEX.
  | K-points in task   0:       166
  | K-points in task   1:       167
  | K-points in task   2:       167
  | K-points in task   3:       167
  | K-points in task   4:       167
  | K-points in task   5:       167
  | K-points in task   6:       167
  | K-points in task   7:       167
  | K-points in task   8:       167
  | K-points in task   9:       167
  | K-points in task  10:       167
  | K-points in task  11:       167
  | K-points in task  12:       167
  | K-points in task  13:       167
  | K-points in task  14:       167
  | K-points in task  15:       167
  | K-points in task  16:       167
  | K-points in task  17:       167
  | K-points in task  18:       167
  | K-points in task  19:       167
  | K-points in task  20:       167
  | K-points in task  21:       166
  | K-points in task  22:       166
  | K-points in task  23:       166
  | Number of basis functions in the Hamiltonian integrals :      7182
  | Number of basis functions in a single unit cell        :       156
  | Number of centers in hartree potential         :      1424
  | Number of centers in hartree multipole         :      1294
  | Number of centers in electron density summation:       970
  | Number of centers in basis integrals           :      1020
  | Number of centers in integrals                 :       340
  | Number of centers in hamiltonian               :       970
  | Consuming      19394 KiB for k_phase.
  | Number of super-cells (origin) [n_cells]                     :        1575
  | Number of super-cells (after PM_index) [n_cells]             :         310
  | Number of super-cells in hamiltonian [n_cells_in_hamiltonian]:         310
  | Size of matrix packed + index [n_hamiltonian_matrix_size] :     1112301
  | Estimated reciprocal-space cutoff momentum G_max:         3.55244536 bohr^-1 .
  | Reciprocal lattice points for long-range Hartree potential:     188
  Partitioning the integration grid into batches with parallel hashing+maxmin method.
  | Number of batches:     1024
  | Maximal batch size:      94
  | Minimal batch size:      58
  | Average batch size:      70.617
  | Standard deviation of batch sizes:       6.896

  Integration load balanced across    24 MPI tasks.
  Work distribution over tasks is as follows:
  Task     0 has       3022 integration points.
  Task     1 has       3029 integration points.
  Task     2 has       2982 integration points.
  Task     3 has       3017 integration points.
  Task     4 has       2996 integration points.
  Task     5 has       3035 integration points.
  Task     6 has       3005 integration points.
  Task     7 has       2981 integration points.
  Task     8 has       3041 integration points.
  Task     9 has       2988 integration points.
  Task    10 has       3003 integration points.
  Task    11 has       3044 integration points.
  Task    12 has       2997 integration points.
  Task    13 has       3021 integration points.
  Task    14 has       3032 integration points.
  Task    15 has       3040 integration points.
  Task    16 has       2988 integration points.
  Task    17 has       3024 integration points.
  Task    18 has       3000 integration points.
  Task    19 has       3005 integration points.
  Task    20 has       3031 integration points.
  Task    21 has       3014 integration points.
  Task    22 has       3035 integration points.
  Task    23 has       2982 integration points.
  Initializing partition tables, free-atom densities, potentials, etc. across the integration grid (initialize_grid_storage).
  | initialize_grid_storage: Actual outermost partition radius vs. multipole_radius_free
  | (-- VB: in principle, multipole_radius_free should be larger, hence this output)
  | Species        1: Confinement radius =              6.000000000000000 AA, multipole_radius_free =              6.029870734432609 AA.
  | Species        1: outer_partition_radius set to              6.029870734432609 AA .
  | The sparse table of interatomic distances needs       9620.76 kbyte instead of      8323.20 kbyte of memory.
  | Using the partition_type stratmann_smoother will reduce your memory usage.
  | Net number of integration points:    72312
  | of which are non-zero points    :    49128
  | Numerical average free-atom electrostatic potential    :    -14.04107976 eV
  Renormalizing the initial density to the exact electron count on the 3D integration grid.
  | Initial density: Formal number of electrons (from input files) :      24.0000000000
  | Integrated number of electrons on 3D grid     :      24.0000819816
  | Charge integration error                      :       0.0000819816
  | Normalization factor for density and gradient :       0.9999965841
  Renormalizing the free-atom superposition density to the exact electron count on the 3D integration grid.
  | Formal number of electrons (from input files) :      24.0000000000
  | Integrated number of electrons on 3D grid     :      24.0000819816
  | Charge integration error                      :       0.0000819816
  | Normalization factor for density and gradient :       0.9999965841
  Obtaining max. number of non-zero basis functions in each batch (get_n_compute_maxes).
  | Maximal number of non-zero basis functions:     2198 in task     0
  | Maximal number of non-zero basis functions:     2158 in task     1
  | Maximal number of non-zero basis functions:     2196 in task     2
  | Maximal number of non-zero basis functions:     2187 in task     3
  | Maximal number of non-zero basis functions:     2207 in task     4
  | Maximal number of non-zero basis functions:     2231 in task     5
  | Maximal number of non-zero basis functions:     2214 in task     6
  | Maximal number of non-zero basis functions:     2201 in task     7
  | Maximal number of non-zero basis functions:     2193 in task     8
  | Maximal number of non-zero basis functions:     2179 in task     9
  | Maximal number of non-zero basis functions:     2183 in task    10
  | Maximal number of non-zero basis functions:     2203 in task    11
  | Maximal number of non-zero basis functions:     2198 in task    12
  | Maximal number of non-zero basis functions:     2215 in task    13
  | Maximal number of non-zero basis functions:     2182 in task    14
  | Maximal number of non-zero basis functions:     2188 in task    15
  | Maximal number of non-zero basis functions:     2251 in task    16
  | Maximal number of non-zero basis functions:     2200 in task    17
  | Maximal number of non-zero basis functions:     2185 in task    18
  | Maximal number of non-zero basis functions:     2185 in task    19
  | Maximal number of non-zero basis functions:     2209 in task    20
  | Maximal number of non-zero basis functions:     2201 in task    21
  | Maximal number of non-zero basis functions:     2231 in task    22
  | Maximal number of non-zero basis functions:     2203 in task    23
  Allocating        9.483 MB for KS_eigenvector_complex
  Integrating Hamiltonian matrix: batch-based integration.
  Time summed over all CPUs for integration: real work       65.121 s, elapsed       66.016 s
  Integrating overlap matrix.
  Time summed over all CPUs for integration: real work       54.791 s, elapsed       55.675 s
  Decreasing sparse matrix size:
  | Tolerance:  0.1000E-12
  Hamiltonian matrix
  | Array has   805750 nonzero elements out of  1112301 elements
  | Sparsity factor is 0.276
  Overlap matrix
  | Array has   738758 nonzero elements out of  1112301 elements
  | Sparsity factor is 0.336
  New size of hamiltonian matrix:      807919

  Updating Kohn-Sham eigenvalues and eigenvectors using ELSI and the (modified) LAPACK eigensolver.
  Singularity check in k-point 24, task 0 (analysis for other k-points/tasks may follow below):
  Overlap matrix is not singular
  | Lowest and highest eigenvalues :  0.9832E-04,  0.1900E+02
  Finished singularity check of overlap matrix
  | Time :     0.021 s
  Starting LAPACK eigensolver
  Finished Cholesky decomposition
  | Time :     0.016 s
  Finished transformation to standard eigenproblem
  | Time :     0.002 s
  Finished solving standard eigenproblem
  | Time :     0.005 s
  Finished back-transformation of eigenvectors
  | Time :     0.000 s

  Obtaining occupation numbers and chemical potential using ELSI.
  | Chemical potential (Fermi level):    -8.00518025 eV
  Writing Kohn-Sham eigenvalues.
  K-point:       1 at    0.000000    0.000000    0.000000 (in units of recip. lattice)

  State    Occupation    Eigenvalue [Ha]    Eigenvalue [eV]
      1       2.00000         -10.166665         -276.64904
      2       2.00000         -10.166665         -276.64902
      3       2.00000         -10.165707         -276.62296
      4       2.00000         -10.165707         -276.62296
      5       2.00000          -1.052018          -28.62686
      6       2.00000          -1.044067          -28.41052
      7       2.00000          -0.601500          -16.36764
      8       2.00000          -0.544764          -14.82379
      9       2.00000          -0.469080          -12.76431
     10       2.00000          -0.469080          -12.76431
     11       2.00000          -0.468619          -12.75177
     12       2.00000          -0.468619          -12.75177
     13       0.00000          -0.080400           -2.18779
     14       0.00000          -0.030689           -0.83509
     15       0.00000          -0.030688           -0.83507
     16       0.00000          -0.029369           -0.79918
     17       0.00000          -0.029368           -0.79916
     18       0.00000           0.093146            2.53464
     19       0.00000           0.098826            2.68918
     20       0.00000           0.126375            3.43883
     21       0.00000           0.132080            3.59407
     22       0.00000           0.137496            3.74146
     23       0.00000           0.415112           11.29578
     24       0.00000           0.558242           15.19054

  What follows are estimated values for band gap, HOMO, LUMO, etc.
  | They are estimated on a discrete k-point grid and not necessarily exact.
  | For converged numbers, create a DOS and/or band structure plot on a denser k-grid.

  Highest occupied state (VBM) at     -8.56222238 eV (relative to internal zero)
  | Occupation number:      2.00000000
  | K-point:    2108 at    0.350000    0.350000    0.000000 (in units of recip. lattice)

  Lowest unoccupied state (CBM) at    -7.96402554 eV (relative to internal zero)
  | Occupation number:      0.00000001
  | K-point:    1808 at    0.300000    0.350000    0.000000 (in units of recip. lattice)

  ESTIMATED overall HOMO-LUMO gap:      0.59819684 eV between HOMO at k-point 2108 and LUMO at k-point 1808
  | This appears to be an indirect band gap.
  | Smallest direct gap :      0.59819911 eV for k_point 1808 at    0.300000    0.350000    0.000000 (in units of recip. lattice)
  The gap value is above 0.2 eV. Unless you are using a very sparse k-point grid,
  this system is most likely an insulator or a semiconductor.
  Calculating total energy contributions from superposition of free atom densities.

  Total energy components:
  | Sum of eigenvalues            :         -92.01143550 Ha       -2503.75854983 eV
  | XC energy correction          :         -21.41694622 Ha        -582.78475833 eV
  | XC potential correction       :          27.51703132 Ha         748.77651945 eV
  | Free-atom electrostatic energy:         -66.62162784 Ha       -1812.86673124 eV
  | Hartree energy correction     :           0.00000000 Ha           0.00000000 eV
  | Entropy correction            :          -0.00000000 Ha          -0.00000000 eV
  | ---------------------------
  | Total energy                  :        -152.53297825 Ha       -4150.63351996 eV
  | Total energy, T -> 0          :        -152.53297825 Ha       -4150.63351996 eV  <-- do not rely on this value for anything but (periodic) metals
  | Electronic free energy        :        -152.53297825 Ha       -4150.63351996 eV

  Derived energy quantities:
  | Kinetic energy                :         151.91530988 Ha        4133.82590852 eV
  | Electrostatic energy          :        -283.03134191 Ha       -7701.67467014 eV
  | Energy correction for multipole
  | error in Hartree potential    :           0.00000000 Ha           0.00000000 eV
  | Sum of eigenvalues per atom                           :        -625.93963746 eV
  | Total energy (T->0) per atom                          :       -1037.65837999 eV  <-- do not rely on this value for anything but (periodic) metals
  | Electronic free energy per atom                       :       -1037.65837999 eV
  Initialize hartree_potential_storage
  Max. number of atoms included in rho_multipole:            4

  End scf initialization - timings             :  max(cpu_time)    wall_clock(cpu1)
  | Time for scf. initialization               :        9.670 s           9.714 s
  | Boundary condition initialization          :        0.291 s           0.294 s
  | Integration                                :        5.173 s           5.177 s
  | Solution of K.-S. eqns.                    :        3.010 s           3.036 s
  | Grid partitioning                          :        0.087 s           0.090 s
  | Preloading free-atom quantities on grid    :        0.009 s           0.009 s
  | Free-atom superposition energy             :        0.053 s           0.054 s
  | Total energy evaluation                    :        0.003 s           0.003 s

  Partial memory accounting:
  | Current value for overall tracked memory usage:
  |   Minimum:       24.894 MB (on task  0)
  |   Maximum:       24.951 MB (on task  1)
  |   Average:       24.941 MB
  | Peak value for overall tracked memory usage:
  |   Minimum:       70.978 MB (on task  1 after allocating wave)
  |   Maximum:       74.309 MB (on task 16 after allocating wave)
  |   Average:       72.457 MB
  | Largest tracked array allocation so far:
  |   Minimum:       35.530 MB (hamiltonian_shell on task  1)
  |   Maximum:       38.658 MB (hamiltonian_shell on task 16)
  |   Average:       36.926 MB
  Note:  These values currently only include a subset of arrays which are explicitly tracked.
  The "true" memory usage will be greater.
------------------------------------------------------------

------------------------------------------------------------
          Begin self-consistency iteration #    1

  Date     :  20200319, Time     :  194130.415
------------------------------------------------------------
  Evaluating new KS density using the density matrix
  Evaluating density matrix
  Time summed over all CPUs for getting density from density matrix: real work      119.275 s, elapsed      121.804 s
  Integration grid: deviation in total charge (<rho> - N_e) =   1.046274E-11
  Pulay mixing of updated and previous charge densities.
  Renormalizing the density to the exact electron count on the 3D integration grid.
  | Formal number of electrons (from input files) :      24.0000000000
  | Integrated number of electrons on 3D grid     :      23.9996353003
  | Charge integration error                      :      -0.0003646997
  | Normalization factor for density and gradient :       1.0000151961

  Evaluating partitioned Hartree potential by multipole expansion.
  | Original multipole sum: apparent total charge =  -0.148862E-13
  | Sum of charges compensated after spline to logarithmic grids =   0.672399E-07
  | Analytical far-field extrapolation by fixed multipoles:
  | Hartree multipole sum: apparent total charge =  -0.148955E-13
  Summing up the Hartree potential.
  Time summed over all CPUs for potential: real work        8.438 s, elapsed        8.700 s
  | RMS charge density error from multipole expansion :   0.583684E-03
  | Average real-space part of the electrostatic potential :      0.02381151 eV

  Integrating Hamiltonian matrix: batch-based integration.
  Time summed over all CPUs for integration: real work       61.126 s, elapsed       61.875 s

  Updating Kohn-Sham eigenvalues and eigenvectors using ELSI and the (modified) LAPACK eigensolver.
  Starting LAPACK eigensolver
  Finished Cholesky decomposition
  | Time :     0.001 s
  Finished transformation to standard eigenproblem
  | Time :     0.001 s
  Finished solving standard eigenproblem
  | Time :     0.004 s
  Finished back-transformation of eigenvectors
  | Time :     0.001 s

  Obtaining occupation numbers and chemical potential using ELSI.
  | Chemical potential (Fermi level):    -7.91384995 eV
  Writing Kohn-Sham eigenvalues.
  K-point:       1 at    0.000000    0.000000    0.000000 (in units of recip. lattice)

  State    Occupation    Eigenvalue [Ha]    Eigenvalue [eV]
      1       2.00000         -10.157470         -276.39881
      2       2.00000         -10.157469         -276.39880
      3       2.00000         -10.156504         -276.37253
      4       2.00000         -10.156504         -276.37253
      5       2.00000          -1.047346          -28.49974
      6       2.00000          -1.039235          -28.27902
      7       2.00000          -0.599226          -16.30578
      8       2.00000          -0.541590          -14.73741
      9       2.00000          -0.462679          -12.59013
     10       2.00000          -0.462679          -12.59013
     11       2.00000          -0.462207          -12.57730
     12       2.00000          -0.462207          -12.57730
     13       0.00000          -0.081208           -2.20979
     14       0.00000          -0.025312           -0.68878
     15       0.00000          -0.025311           -0.68876
     16       0.00000          -0.023965           -0.65213
     17       0.00000          -0.023965           -0.65212
     18       0.00000           0.097816            2.66172
     19       0.00000           0.103590            2.81884
     20       0.00000           0.126617            3.44543
     21       0.00000           0.136998            3.72791
     22       0.00000           0.142513            3.87799
     23       0.00000           0.415827           11.31524
     24       0.00000           0.560508           15.25221

  What follows are estimated values for band gap, HOMO, LUMO, etc.
  | They are estimated on a discrete k-point grid and not necessarily exact.
  | For converged numbers, create a DOS and/or band structure plot on a denser k-grid.

  Highest occupied state (VBM) at     -8.47066130 eV (relative to internal zero)
  | Occupation number:      2.00000000
  | K-point:    2108 at    0.350000    0.350000    0.000000 (in units of recip. lattice)

  Lowest unoccupied state (CBM) at    -7.87269289 eV (relative to internal zero)
  | Occupation number:      0.00000001
  | K-point:    2093 at    0.350000    0.300000    0.000000 (in units of recip. lattice)

  ESTIMATED overall HOMO-LUMO gap:      0.59796841 eV between HOMO at k-point 2108 and LUMO at k-point 2093
  | This appears to be an indirect band gap.
  | Smallest direct gap :      0.59797034 eV for k_point 2093 at    0.350000    0.300000    0.000000 (in units of recip. lattice)
  The gap value is above 0.2 eV. Unless you are using a very sparse k-point grid,
  this system is most likely an insulator or a semiconductor.

  Total energy components:
  | Sum of eigenvalues            :         -91.85976020 Ha       -2499.63125478 eV
  | XC energy correction          :         -21.43010176 Ha        -583.14273874 eV
  | XC potential correction       :          27.53401056 Ha         749.23854817 eV
  | Free-atom electrostatic energy:         -66.62162784 Ha       -1812.86673124 eV
  | Hartree energy correction     :          -0.14566855 Ha          -3.96384295 eV
  | Entropy correction            :          -0.00000000 Ha          -0.00000000 eV
  | ---------------------------
  | Total energy                  :        -152.52314779 Ha       -4150.36601954 eV
  | Total energy, T -> 0          :        -152.52314779 Ha       -4150.36601954 eV  <-- do not rely on this value for anything but (periodic) metals
  | Electronic free energy        :        -152.52314779 Ha       -4150.36601954 eV

  Derived energy quantities:
  | Kinetic energy                :         151.96276277 Ha        4135.11716751 eV
  | Electrostatic energy          :        -283.05580880 Ha       -7702.34044831 eV
  | Energy correction for multipole
  | error in Hartree potential    :          -0.00131045 Ha          -0.03565914 eV
  | Sum of eigenvalues per atom                           :        -624.90781370 eV
  | Total energy (T->0) per atom                          :       -1037.59150489 eV  <-- do not rely on this value for anything but (periodic) metals
  | Electronic free energy per atom                       :       -1037.59150489 eV

  Self-consistency convergence accuracy:
  | Change of charge density      :  0.3312E+00
  | Change of sum of eigenvalues  :  0.4127E+01 eV
  | Change of total energy        :  0.2675E+00 eV

  End self-consistency iteration #     1       :  max(cpu_time)    wall_clock(cpu1)
  | Time for this iteration                    :       11.632 s          11.632 s
  | Charge density update                      :        5.970 s           5.970 s
  | Density mixing & preconditioning           :        0.358 s           0.358 s
  | Hartree multipole update                   :        0.002 s           0.002 s
  | Hartree multipole summation                :        0.371 s           0.371 s
  | Integration                                :        2.654 s           2.656 s
  | Solution of K.-S. eqns.                    :        2.271 s           2.271 s
  | Total energy evaluation                    :        0.003 s           0.003 s

  Partial memory accounting:
  | Current value for overall tracked memory usage:
  |   Minimum:       24.894 MB (on task  0)
  |   Maximum:       24.951 MB (on task  1)
  |   Average:       24.941 MB
  | Peak value for overall tracked memory usage:
  |   Minimum:       70.978 MB (on task  1 after allocating wave)
  |   Maximum:       74.309 MB (on task 16 after allocating wave)
  |   Average:       72.457 MB
  | Largest tracked array allocation so far:
  |   Minimum:       35.530 MB (hamiltonian_shell on task  1)
  |   Maximum:       38.658 MB (hamiltonian_shell on task 16)
  |   Average:       36.926 MB
  Note:  These values currently only include a subset of arrays which are explicitly tracked.
  The "true" memory usage will be greater.
------------------------------------------------------------

------------------------------------------------------------
          Begin self-consistency iteration #    2

  Date     :  20200319, Time     :  194142.050
------------------------------------------------------------
  Evaluating new KS density using the density matrix
  Evaluating density matrix
  Time summed over all CPUs for getting density from density matrix: real work      118.899 s, elapsed      121.276 s
  Integration grid: deviation in total charge (<rho> - N_e) =   1.046985E-11
  Pulay mixing of updated and previous charge densities.
  Renormalizing the density to the exact electron count on the 3D integration grid.
  | Formal number of electrons (from input files) :      24.0000000000
  | Integrated number of electrons on 3D grid     :      23.9939576501
  | Charge integration error                      :      -0.0060423499
  | Normalization factor for density and gradient :       1.0002518280

  Evaluating partitioned Hartree potential by multipole expansion.
  | Original multipole sum: apparent total charge =  -0.965769E-14
  | Sum of charges compensated after spline to logarithmic grids =   0.119296E-05
  | Analytical far-field extrapolation by fixed multipoles:
  | Hartree multipole sum: apparent total charge =  -0.964078E-14
  Summing up the Hartree potential.
  Time summed over all CPUs for potential: real work        8.647 s, elapsed        8.911 s
  | RMS charge density error from multipole expansion :   0.104463E-01
  | Average real-space part of the electrostatic potential :      0.42326095 eV

  Integrating Hamiltonian matrix: batch-based integration.
  Time summed over all CPUs for integration: real work       61.303 s, elapsed       62.211 s

  Updating Kohn-Sham eigenvalues and eigenvectors using ELSI and the (modified) LAPACK eigensolver.
  Starting LAPACK eigensolver
  Finished Cholesky decomposition
  | Time :     0.000 s
  Finished transformation to standard eigenproblem
  | Time :     0.002 s
  Finished solving standard eigenproblem
  | Time :     0.004 s
  Finished back-transformation of eigenvectors
  | Time :     0.000 s

  Obtaining occupation numbers and chemical potential using ELSI.
  | Chemical potential (Fermi level):    -6.43153574 eV
  What follows are estimated values for band gap, HOMO, LUMO, etc.
  | They are estimated on a discrete k-point grid and not necessarily exact.
  | For converged numbers, create a DOS and/or band structure plot on a denser k-grid.

  Highest occupied state (VBM) at     -6.99341650 eV (relative to internal zero)
  | Occupation number:      2.00000000
  | K-point:    1808 at    0.300000    0.350000    0.000000 (in units of recip. lattice)

  Lowest unoccupied state (CBM) at    -6.39036363 eV (relative to internal zero)
  | Occupation number:      0.00000001
  | K-point:    1808 at    0.300000    0.350000    0.000000 (in units of recip. lattice)

  ESTIMATED overall HOMO-LUMO gap:      0.60305286 eV between HOMO at k-point 1808 and LUMO at k-point 1808
  | This appears to be a direct band gap.
  The gap value is above 0.2 eV. Unless you are using a very sparse k-point grid,
  this system is most likely an insulator or a semiconductor.

  Total energy components:
  | Sum of eigenvalues            :         -89.33715818 Ha       -2430.98776130 eV
  | XC energy correction          :         -21.68726910 Ha        -590.14061816 eV
  | XC potential correction       :          27.86351253 Ha         758.20475301 eV
  | Free-atom electrostatic energy:         -66.62162784 Ha       -1812.86673124 eV
  | Hartree energy correction     :          -2.66630906 Ha         -72.55396111 eV
  | Entropy correction            :          -0.00000000 Ha          -0.00000000 eV
  | ---------------------------
  | Total energy                  :        -152.44885165 Ha       -4148.34431880 eV
  | Total energy, T -> 0          :        -152.44885165 Ha       -4148.34431880 eV  <-- do not rely on this value for anything but (periodic) metals
  | Electronic free energy        :        -152.44885165 Ha       -4148.34431880 eV

  Derived energy quantities:
  | Kinetic energy                :         152.57217537 Ha        4151.70012811 eV
  | Electrostatic energy          :        -283.33375793 Ha       -7709.90382875 eV
  | Energy correction for multipole
  | error in Hartree potential    :          -0.02327603 Ha          -0.63337303 eV
  | Sum of eigenvalues per atom                           :        -607.74694032 eV
  | Total energy (T->0) per atom                          :       -1037.08607970 eV  <-- do not rely on this value for anything but (periodic) metals
  | Electronic free energy per atom                       :       -1037.08607970 eV

  Self-consistency convergence accuracy:
  | Change of charge density      :  0.3128E+00
  | Change of sum of eigenvalues  :  0.6864E+02 eV
  | Change of total energy        :  0.2022E+01 eV

  End self-consistency iteration #     2       :  max(cpu_time)    wall_clock(cpu1)
  | Time for this iteration                    :       11.409 s          11.410 s
  | Charge density update                      :        5.949 s           5.948 s
  | Density mixing & preconditioning           :        0.155 s           0.155 s
  | Hartree multipole update                   :        0.002 s           0.002 s
  | Hartree multipole summation                :        0.379 s           0.379 s
  | Integration                                :        2.647 s           2.648 s
  | Solution of K.-S. eqns.                    :        2.275 s           2.274 s
  | Total energy evaluation                    :        0.003 s           0.003 s

  Partial memory accounting:
  | Current value for overall tracked memory usage:
  |   Minimum:       24.894 MB (on task  0)
  |   Maximum:       24.951 MB (on task  1)
  |   Average:       24.942 MB
  | Peak value for overall tracked memory usage:
  |   Minimum:       70.978 MB (on task  1 after allocating wave)
  |   Maximum:       74.309 MB (on task 16 after allocating wave)
  |   Average:       72.457 MB
  | Largest tracked array allocation so far:
  |   Minimum:       35.530 MB (hamiltonian_shell on task  1)
  |   Maximum:       38.658 MB (hamiltonian_shell on task 16)
  |   Average:       36.926 MB
  Note:  These values currently only include a subset of arrays which are explicitly tracked.
  The "true" memory usage will be greater.
------------------------------------------------------------

------------------------------------------------------------
          Begin self-consistency iteration #    3

  Date     :  20200319, Time     :  194153.464
------------------------------------------------------------
  Evaluating new KS density using the density matrix
  Evaluating density matrix
  Time summed over all CPUs for getting density from density matrix: real work      118.881 s, elapsed      121.377 s
  Integration grid: deviation in total charge (<rho> - N_e) =   1.058709E-11
  Pulay mixing of updated and previous charge densities.
  Renormalizing the density to the exact electron count on the 3D integration grid.
  | Formal number of electrons (from input files) :      24.0000000000
  | Integrated number of electrons on 3D grid     :      24.0007958953
  | Charge integration error                      :       0.0007958953
  | Normalization factor for density and gradient :       0.9999668388

  Evaluating partitioned Hartree potential by multipole expansion.
  | Original multipole sum: apparent total charge =  -0.138130E-13
  | Sum of charges compensated after spline to logarithmic grids =   0.122641E-05
  | Analytical far-field extrapolation by fixed multipoles:
  | Hartree multipole sum: apparent total charge =  -0.138080E-13
  Summing up the Hartree potential.
  Time summed over all CPUs for potential: real work        8.714 s, elapsed       10.445 s
  | RMS charge density error from multipole expansion :   0.107152E-01
  | Average real-space part of the electrostatic potential :      0.41701105 eV

  Integrating Hamiltonian matrix: batch-based integration.
  Time summed over all CPUs for integration: real work       61.149 s, elapsed       61.969 s

  Updating Kohn-Sham eigenvalues and eigenvectors using ELSI and the (modified) LAPACK eigensolver.
  Starting LAPACK eigensolver
  Finished Cholesky decomposition
  | Time :     0.001 s
  Finished transformation to standard eigenproblem
  | Time :     0.001 s
  Finished solving standard eigenproblem
  | Time :     0.005 s
  Finished back-transformation of eigenvectors
  | Time :     0.000 s

  Obtaining occupation numbers and chemical potential using ELSI.
  | Chemical potential (Fermi level):    -6.52800092 eV
  What follows are estimated values for band gap, HOMO, LUMO, etc.
  | They are estimated on a discrete k-point grid and not necessarily exact.
  | For converged numbers, create a DOS and/or band structure plot on a denser k-grid.

  Highest occupied state (VBM) at     -7.08872631 eV (relative to internal zero)
  | Occupation number:      2.00000000
  | K-point:    2108 at    0.350000    0.350000    0.000000 (in units of recip. lattice)

  Lowest unoccupied state (CBM) at    -6.48681165 eV (relative to internal zero)
  | Occupation number:      0.00000001
  | K-point:    2093 at    0.350000    0.300000    0.000000 (in units of recip. lattice)

  ESTIMATED overall HOMO-LUMO gap:      0.60191466 eV between HOMO at k-point 2108 and LUMO at k-point 2093
  | This appears to be an indirect band gap.
  | Smallest direct gap :      0.60191577 eV for k_point 2093 at    0.350000    0.300000    0.000000 (in units of recip. lattice)
  The gap value is above 0.2 eV. Unless you are using a very sparse k-point grid,
  this system is most likely an insulator or a semiconductor.

  Checking to see if s.c.f. parameters should be adjusted.
  The system likely has a gap. Increased the default Pulay mixing parameter (charge_mix_param). Value:   0.200000 .
  Kept the default occupation width. Value:   0.010000 eV.

  Total energy components:
  | Sum of eigenvalues            :         -89.54349990 Ha       -2436.60260531 eV
  | XC energy correction          :         -21.65755171 Ha        -589.33196699 eV
  | XC potential correction       :          27.82615999 Ha         757.18833855 eV
  | Free-atom electrostatic energy:         -66.62162784 Ha       -1812.86673124 eV
  | Hartree energy correction     :          -2.45219605 Ha         -66.72764960 eV
  | Entropy correction            :          -0.00000000 Ha          -0.00000000 eV
  | ---------------------------
  | Total energy                  :        -152.44871552 Ha       -4148.34061459 eV
  | Total energy, T -> 0          :        -152.44871552 Ha       -4148.34061459 eV  <-- do not rely on this value for anything but (periodic) metals
  | Electronic free energy        :        -152.44871552 Ha       -4148.34061459 eV

  Derived energy quantities:
  | Kinetic energy                :         152.33274938 Ha        4145.18501545 eV
  | Electrostatic energy          :        -283.12391319 Ha       -7704.19366306 eV
  | Energy correction for multipole
  | error in Hartree potential    :          -0.02362216 Ha          -0.64279155 eV
  | Sum of eigenvalues per atom                           :        -609.15065133 eV
  | Total energy (T->0) per atom                          :       -1037.08515365 eV  <-- do not rely on this value for anything but (periodic) metals
  | Electronic free energy per atom                       :       -1037.08515365 eV

  Self-consistency convergence accuracy:
  | Change of charge density      :  0.3957E-01
  | Change of sum of eigenvalues  : -0.5615E+01 eV
  | Change of total energy        :  0.3704E-02 eV

  End self-consistency iteration #     3       :  max(cpu_time)    wall_clock(cpu1)
  | Time for this iteration                    :       11.468 s          11.468 s
  | Charge density update                      :        5.953 s           5.953 s
  | Density mixing & preconditioning           :        0.156 s           0.156 s
  | Hartree multipole update                   :        0.002 s           0.002 s
  | Hartree multipole summation                :        0.443 s           0.443 s
  | Integration                                :        2.637 s           2.637 s
  | Solution of K.-S. eqns.                    :        2.273 s           2.273 s
  | Total energy evaluation                    :        0.003 s           0.003 s

  Partial memory accounting:
  | Current value for overall tracked memory usage:
  |   Minimum:       24.894 MB (on task  0)
  |   Maximum:       24.951 MB (on task  1)
  |   Average:       24.942 MB
  | Peak value for overall tracked memory usage:
  |   Minimum:       70.978 MB (on task  1 after allocating wave)
  |   Maximum:       74.309 MB (on task 16 after allocating wave)
  |   Average:       72.457 MB
  | Largest tracked array allocation so far:
  |   Minimum:       35.530 MB (hamiltonian_shell on task  1)
  |   Maximum:       38.658 MB (hamiltonian_shell on task 16)
  |   Average:       36.926 MB
  Note:  These values currently only include a subset of arrays which are explicitly tracked.
  The "true" memory usage will be greater.
------------------------------------------------------------

------------------------------------------------------------
          Begin self-consistency iteration #    4

  Date     :  20200319, Time     :  194204.932
------------------------------------------------------------
  Evaluating new KS density using the density matrix
  Evaluating density matrix
  Time summed over all CPUs for getting density from density matrix: real work      119.052 s, elapsed      121.364 s
  Integration grid: deviation in total charge (<rho> - N_e) =   1.044143E-11
  Pulay mixing of updated and previous charge densities.
  Renormalizing the density to the exact electron count on the 3D integration grid.
  | Formal number of electrons (from input files) :      24.0000000000
  | Integrated number of electrons on 3D grid     :      24.0008179934
  | Charge integration error                      :       0.0008179934
  | Normalization factor for density and gradient :       0.9999659181

  Evaluating partitioned Hartree potential by multipole expansion.
  | Original multipole sum: apparent total charge =  -0.119068E-13
  | Sum of charges compensated after spline to logarithmic grids =   0.139480E-05
  | Analytical far-field extrapolation by fixed multipoles:
  | Hartree multipole sum: apparent total charge =  -0.119022E-13
  Summing up the Hartree potential.
  Time summed over all CPUs for potential: real work        8.672 s, elapsed        8.938 s
  | RMS charge density error from multipole expansion :   0.122524E-01
  | Average real-space part of the electrostatic potential :      0.44770951 eV

  Integrating Hamiltonian matrix: batch-based integration.
  Time summed over all CPUs for integration: real work       61.173 s, elapsed       61.998 s

  Updating Kohn-Sham eigenvalues and eigenvectors using ELSI and the (modified) LAPACK eigensolver.
  Starting LAPACK eigensolver
  Finished Cholesky decomposition
  | Time :     0.001 s
  Finished transformation to standard eigenproblem
  | Time :     0.001 s
  Finished solving standard eigenproblem
  | Time :     0.005 s
  Finished back-transformation of eigenvectors
  | Time :     0.000 s

  Obtaining occupation numbers and chemical potential using ELSI.
  | Chemical potential (Fermi level):    -6.54376416 eV
  What follows are estimated values for band gap, HOMO, LUMO, etc.
  | They are estimated on a discrete k-point grid and not necessarily exact.
  | For converged numbers, create a DOS and/or band structure plot on a denser k-grid.

  Highest occupied state (VBM) at     -7.10387507 eV (relative to internal zero)
  | Occupation number:      2.00000000
  | K-point:    2108 at    0.350000    0.350000    0.000000 (in units of recip. lattice)

  Lowest unoccupied state (CBM) at    -6.50257835 eV (relative to internal zero)
  | Occupation number:      0.00000001
  | K-point:    2108 at    0.350000    0.350000    0.000000 (in units of recip. lattice)

  ESTIMATED overall HOMO-LUMO gap:      0.60129673 eV between HOMO at k-point 2108 and LUMO at k-point 2108
  | This appears to be a direct band gap.
  The gap value is above 0.2 eV. Unless you are using a very sparse k-point grid,
  this system is most likely an insulator or a semiconductor.

  Total energy components:
  | Sum of eigenvalues            :         -89.63806470 Ha       -2439.17584429 eV
  | XC energy correction          :         -21.63758762 Ha        -588.78871625 eV
  | XC potential correction       :          27.80146444 Ha         756.51633857 eV
  | Free-atom electrostatic energy:         -66.62162784 Ha       -1812.86673124 eV
  | Hartree energy correction     :          -2.35311110 Ha         -64.03141080 eV
  | Entropy correction            :          -0.00000000 Ha          -0.00000000 eV
  | ---------------------------
  | Total energy                  :        -152.44892681 Ha       -4148.34636402 eV
  | Total energy, T -> 0          :        -152.44892681 Ha       -4148.34636402 eV  <-- do not rely on this value for anything but (periodic) metals
  | Electronic free energy        :        -152.44892681 Ha       -4148.34636402 eV

  Derived energy quantities:
  | Kinetic energy                :         151.97690830 Ha        4135.50208690 eV
  | Electrostatic energy          :        -282.78824749 Ha       -7695.05973466 eV
  | Energy correction for multipole
  | error in Hartree potential    :          -0.02652858 Ha          -0.72187949 eV
  | Sum of eigenvalues per atom                           :        -609.79396107 eV
  | Total energy (T->0) per atom                          :       -1037.08659100 eV  <-- do not rely on this value for anything but (periodic) metals
  | Electronic free energy per atom                       :       -1037.08659100 eV

  Self-consistency convergence accuracy:
  | Change of charge density      :  0.2747E-01
  | Change of sum of eigenvalues  : -0.2573E+01 eV
  | Change of total energy        : -0.5749E-02 eV

  End self-consistency iteration #     4       :  max(cpu_time)    wall_clock(cpu1)
  | Time for this iteration                    :       11.410 s          11.411 s
  | Charge density update                      :        5.956 s           5.957 s
  | Density mixing & preconditioning           :        0.160 s           0.159 s
  | Hartree multipole update                   :        0.002 s           0.002 s
  | Hartree multipole summation                :        0.381 s           0.381 s
  | Integration                                :        2.638 s           2.638 s
  | Solution of K.-S. eqns.                    :        2.270 s           2.270 s
  | Total energy evaluation                    :        0.003 s           0.003 s

  Partial memory accounting:
  | Current value for overall tracked memory usage:
  |   Minimum:       24.894 MB (on task  0)
  |   Maximum:       24.951 MB (on task  1)
  |   Average:       24.942 MB
  | Peak value for overall tracked memory usage:
  |   Minimum:       70.978 MB (on task  1 after allocating wave)
  |   Maximum:       74.309 MB (on task 16 after allocating wave)
  |   Average:       72.457 MB
  | Largest tracked array allocation so far:
  |   Minimum:       35.530 MB (hamiltonian_shell on task  1)
  |   Maximum:       38.658 MB (hamiltonian_shell on task 16)
  |   Average:       36.926 MB
  Note:  These values currently only include a subset of arrays which are explicitly tracked.
  The "true" memory usage will be greater.
------------------------------------------------------------

------------------------------------------------------------
          Begin self-consistency iteration #    5

  Date     :  20200319, Time     :  194216.345
------------------------------------------------------------
  Evaluating new KS density using the density matrix
  Evaluating density matrix
  Time summed over all CPUs for getting density from density matrix: real work      118.984 s, elapsed      121.356 s
  Integration grid: deviation in total charge (<rho> - N_e) =   1.045208E-11
  Pulay mixing of updated and previous charge densities.
  Renormalizing the density to the exact electron count on the 3D integration grid.
  | Formal number of electrons (from input files) :      24.0000000000
  | Integrated number of electrons on 3D grid     :      24.0002762700
  | Charge integration error                      :       0.0002762700
  | Normalization factor for density and gradient :       0.9999884889

  Evaluating partitioned Hartree potential by multipole expansion.
  | Original multipole sum: apparent total charge =   0.142033E-14
  | Sum of charges compensated after spline to logarithmic grids =   0.138594E-05
  | Analytical far-field extrapolation by fixed multipoles:
  | Hartree multipole sum: apparent total charge =   0.160404E-14
  Summing up the Hartree potential.
  Time summed over all CPUs for potential: real work        8.674 s, elapsed        8.933 s
  | RMS charge density error from multipole expansion :   0.124982E-01
  | Average real-space part of the electrostatic potential :      0.45266523 eV

  Integrating Hamiltonian matrix: batch-based integration.
  Time summed over all CPUs for integration: real work       61.139 s, elapsed       61.946 s

  Updating Kohn-Sham eigenvalues and eigenvectors using ELSI and the (modified) LAPACK eigensolver.
  Starting LAPACK eigensolver
  Finished Cholesky decomposition
  | Time :     0.000 s
  Finished transformation to standard eigenproblem
  | Time :     0.001 s
  Finished solving standard eigenproblem
  | Time :     0.004 s
  Finished back-transformation of eigenvectors
  | Time :     0.001 s

  Obtaining occupation numbers and chemical potential using ELSI.
  | Chemical potential (Fermi level):    -6.53711589 eV
  What follows are estimated values for band gap, HOMO, LUMO, etc.
  | They are estimated on a discrete k-point grid and not necessarily exact.
  | For converged numbers, create a DOS and/or band structure plot on a denser k-grid.

  Highest occupied state (VBM) at     -7.09712076 eV (relative to internal zero)
  | Occupation number:      2.00000000
  | K-point:    2108 at    0.350000    0.350000    0.000000 (in units of recip. lattice)

  Lowest unoccupied state (CBM) at    -6.49592992 eV (relative to internal zero)
  | Occupation number:      0.00000001
  | K-point:    2108 at    0.350000    0.350000    0.000000 (in units of recip. lattice)

  ESTIMATED overall HOMO-LUMO gap:      0.60119084 eV between HOMO at k-point 2108 and LUMO at k-point 2108
  | This appears to be a direct band gap.
  The gap value is above 0.2 eV. Unless you are using a very sparse k-point grid,
  this system is most likely an insulator or a semiconductor.

  Total energy components:
  | Sum of eigenvalues            :         -89.62840123 Ha       -2438.91288788 eV
  | XC energy correction          :         -21.64005095 Ha        -588.85574711 eV
  | XC potential correction       :          27.80448050 Ha         756.59840958 eV
  | Free-atom electrostatic energy:         -66.62162784 Ha       -1812.86673124 eV
  | Hartree energy correction     :          -2.36332302 Ha         -64.30929140 eV
  | Entropy correction            :          -0.00000000 Ha          -0.00000000 eV
  | ---------------------------
  | Total energy                  :        -152.44892255 Ha       -4148.34624805 eV
  | Total energy, T -> 0          :        -152.44892255 Ha       -4148.34624805 eV  <-- do not rely on this value for anything but (periodic) metals
  | Electronic free energy        :        -152.44892255 Ha       -4148.34624805 eV

  Derived energy quantities:
  | Kinetic energy                :         151.99368360 Ha        4135.95856604 eV
  | Electrostatic energy          :        -282.80255519 Ha       -7695.44906698 eV
  | Energy correction for multipole
  | error in Hartree potential    :          -0.02701660 Ha          -0.73515903 eV
  | Sum of eigenvalues per atom                           :        -609.72822197 eV
  | Total energy (T->0) per atom                          :       -1037.08656201 eV  <-- do not rely on this value for anything but (periodic) metals
  | Electronic free energy per atom                       :       -1037.08656201 eV

  Self-consistency convergence accuracy:
  | Change of charge density      :  0.4576E-02
  | Change of sum of eigenvalues  :  0.2630E+00 eV
  | Change of total energy        :  0.1160E-03 eV

  End self-consistency iteration #     5       :  max(cpu_time)    wall_clock(cpu1)
  | Time for this iteration                    :       11.414 s          11.413 s
  | Charge density update                      :        5.953 s           5.951 s
  | Density mixing & preconditioning           :        0.160 s           0.160 s
  | Hartree multipole update                   :        0.002 s           0.002 s
  | Hartree multipole summation                :        0.380 s           0.381 s
  | Integration                                :        2.636 s           2.636 s
  | Solution of K.-S. eqns.                    :        2.280 s           2.279 s
  | Total energy evaluation                    :        0.003 s           0.003 s

  Partial memory accounting:
  | Current value for overall tracked memory usage:
  |   Minimum:       24.894 MB (on task  0)
  |   Maximum:       24.951 MB (on task  1)
  |   Average:       24.942 MB
  | Peak value for overall tracked memory usage:
  |   Minimum:       70.978 MB (on task  1 after allocating wave)
  |   Maximum:       74.309 MB (on task 16 after allocating wave)
  |   Average:       72.457 MB
  | Largest tracked array allocation so far:
  |   Minimum:       35.530 MB (hamiltonian_shell on task  1)
  |   Maximum:       38.658 MB (hamiltonian_shell on task 16)
  |   Average:       36.926 MB
  Note:  These values currently only include a subset of arrays which are explicitly tracked.
  The "true" memory usage will be greater.
------------------------------------------------------------

------------------------------------------------------------
          Begin self-consistency iteration #    6

  Date     :  20200319, Time     :  194227.760
------------------------------------------------------------
  Evaluating new KS density using the density matrix
  Evaluating density matrix
  Time summed over all CPUs for getting density from density matrix: real work      118.970 s, elapsed      121.389 s
  Integration grid: deviation in total charge (<rho> - N_e) =   1.048406E-11
  Pulay mixing of updated and previous charge densities.
  Renormalizing the density to the exact electron count on the 3D integration grid.
  | Formal number of electrons (from input files) :      24.0000000000
  | Integrated number of electrons on 3D grid     :      23.9999846281
  | Charge integration error                      :      -0.0000153719
  | Normalization factor for density and gradient :       1.0000006405

  Evaluating partitioned Hartree potential by multipole expansion.
  | Original multipole sum: apparent total charge =  -0.192996E-14
  | Sum of charges compensated after spline to logarithmic grids =   0.138564E-05
  | Analytical far-field extrapolation by fixed multipoles:
  | Hartree multipole sum: apparent total charge =  -0.179640E-14
  Summing up the Hartree potential.
  Time summed over all CPUs for potential: real work        8.679 s, elapsed        8.972 s
  | RMS charge density error from multipole expansion :   0.124919E-01
  | Average real-space part of the electrostatic potential :      0.45192029 eV

  Integrating Hamiltonian matrix: batch-based integration.
  Time summed over all CPUs for integration: real work       61.179 s, elapsed       61.975 s

  Updating Kohn-Sham eigenvalues and eigenvectors using ELSI and the (modified) LAPACK eigensolver.
  Starting LAPACK eigensolver
  Finished Cholesky decomposition
  | Time :     0.001 s
  Finished transformation to standard eigenproblem
  | Time :     0.001 s
  Finished solving standard eigenproblem
  | Time :     0.004 s
  Finished back-transformation of eigenvectors
  | Time :     0.001 s

  Obtaining occupation numbers and chemical potential using ELSI.
  | Chemical potential (Fermi level):    -6.53920731 eV
[...]

  Total energy components:
  | Sum of eigenvalues            :         -89.59856486 Ha       -2438.10099896 eV
  | XC energy correction          :         -21.64423270 Ha        -588.96953808 eV
  | XC potential correction       :          27.80979464 Ha         756.74301495 eV
  | Free-atom electrostatic energy:         -66.62162784 Ha       -1812.86673124 eV
  | Hartree energy correction     :          -2.39429384 Ha         -65.15205028 eV
  | Entropy correction            :          -0.00000000 Ha          -0.00000000 eV
  | ---------------------------
  | Total energy                  :        -152.44892459 Ha       -4148.34630362 eV
  | Total energy, T -> 0          :        -152.44892459 Ha       -4148.34630362 eV  <-- do not rely on this value for anything but (periodic) metals
  | Electronic free energy        :        -152.44892459 Ha       -4148.34630362 eV

  Derived energy quantities:
  | Kinetic energy                :         151.99927523 Ha        4136.11072194 eV
  | Electrostatic energy          :        -282.80396712 Ha       -7695.48748748 eV
  | Energy correction for multipole
  | error in Hartree potential    :          -0.02751959 Ha          -0.74884618 eV
  | Sum of eigenvalues per atom                           :        -609.52524974 eV
  | Total energy (T->0) per atom                          :       -1037.08657591 eV  <-- do not rely on this value for anything but (periodic) metals
  | Electronic free energy per atom                       :       -1037.08657591 eV

  Self-consistency convergence accuracy:
  | Change of charge density      :  0.4148E-05
  | Change of sum of eigenvalues  :  0.2441E-04 eV
  | Change of total energy        :  0.5711E-07 eV

  End self-consistency iteration #    20       :  max(cpu_time)    wall_clock(cpu1)
  | Time for this iteration                    :       11.506 s          11.506 s
  | Charge density update                      :        5.993 s           5.993 s
  | Density mixing & preconditioning           :        0.183 s           0.183 s
  | Hartree multipole update                   :        0.002 s           0.001 s
  | Hartree multipole summation                :        0.381 s           0.382 s
  | Integration                                :        2.638 s           2.637 s
  | Solution of K.-S. eqns.                    :        2.300 s           2.306 s
  | Total energy evaluation                    :        0.003 s           0.003 s

  Partial memory accounting:
  | Current value for overall tracked memory usage:
  |   Minimum:       24.894 MB (on task  0)
  |   Maximum:       24.951 MB (on task  1)
  |   Average:       24.942 MB
  | Peak value for overall tracked memory usage:
  |   Minimum:       70.978 MB (on task  1 after allocating wave)
  |   Maximum:       74.309 MB (on task 16 after allocating wave)
  |   Average:       72.457 MB
  | Largest tracked array allocation so far:
  |   Minimum:       35.530 MB (hamiltonian_shell on task  1)
  |   Maximum:       38.658 MB (hamiltonian_shell on task 16)
  |   Average:       36.926 MB
  Note:  These values currently only include a subset of arrays which are explicitly tracked.
  The "true" memory usage will be greater.
------------------------------------------------------------

------------------------------------------------------------
          Begin self-consistency iteration #   21

  Date     :  20200319, Time     :  194519.849
------------------------------------------------------------
  Evaluating new KS density using the density matrix
  Evaluating density matrix
  Time summed over all CPUs for getting density from density matrix: real work      119.024 s, elapsed      121.597 s
  Integration grid: deviation in total charge (<rho> - N_e) =   1.050893E-11
  Pulay mixing of updated and previous charge densities.
  Renormalizing the density to the exact electron count on the 3D integration grid.
  | Formal number of electrons (from input files) :      24.0000000000
  | Integrated number of electrons on 3D grid     :      23.9999999726
  | Charge integration error                      :      -0.0000000274
  | Normalization factor for density and gradient :       1.0000000011

  Evaluating partitioned Hartree potential by multipole expansion.
  | Original multipole sum: apparent total charge =  -0.161496E-13
  | Sum of charges compensated after spline to logarithmic grids =   0.139863E-05
  | Analytical far-field extrapolation by fixed multipoles:
  | Hartree multipole sum: apparent total charge =  -0.163498E-13
  Summing up the Hartree potential.
  Time summed over all CPUs for potential: real work        8.683 s, elapsed        8.948 s
  | RMS charge density error from multipole expansion :   0.126147E-01
  | Average real-space part of the electrostatic potential :      0.45170852 eV

  Integrating Hamiltonian matrix: batch-based integration.
  Time summed over all CPUs for integration: real work       61.130 s, elapsed       62.087 s

  Updating Kohn-Sham eigenvalues and eigenvectors using ELSI and the (modified) LAPACK eigensolver.
  Starting LAPACK eigensolver
  Finished Cholesky decomposition
  | Time :     0.001 s
  Finished transformation to standard eigenproblem
  | Time :     0.001 s
  Finished solving standard eigenproblem
  | Time :     0.005 s
  Finished back-transformation of eigenvectors
  | Time :     0.000 s

  Obtaining occupation numbers and chemical potential using ELSI.
  | Chemical potential (Fermi level):    -6.51705971 eV
  What follows are estimated values for band gap, HOMO, LUMO, etc.
  | They are estimated on a discrete k-point grid and not necessarily exact.
  | For converged numbers, create a DOS and/or band structure plot on a denser k-grid.

  Highest occupied state (VBM) at     -7.07718474 eV (relative to internal zero)
  | Occupation number:      2.00000000
  | K-point:    2108 at    0.350000    0.350000    0.000000 (in units of recip. lattice)

  Lowest unoccupied state (CBM) at    -6.47588197 eV (relative to internal zero)
  | Occupation number:      0.00000001
  | K-point:    2108 at    0.350000    0.350000    0.000000 (in units of recip. lattice)

  ESTIMATED overall HOMO-LUMO gap:      0.60130277 eV between HOMO at k-point 2108 and LUMO at k-point 2108
  | This appears to be a direct band gap.
  The gap value is above 0.2 eV. Unless you are using a very sparse k-point grid,
  this system is most likely an insulator or a semiconductor.

  Total energy components:
  | Sum of eigenvalues            :         -89.59856576 Ha       -2438.10102359 eV
  | XC energy correction          :         -21.64423260 Ha        -588.96953558 eV
  | XC potential correction       :          27.80979452 Ha         756.74301163 eV
  | Free-atom electrostatic energy:         -66.62162784 Ha       -1812.86673124 eV
  | Hartree energy correction     :          -2.39429291 Ha         -65.15202486 eV
  | Entropy correction            :          -0.00000000 Ha          -0.00000000 eV
  | ---------------------------
  | Total energy                  :        -152.44892459 Ha       -4148.34630364 eV
  | Total energy, T -> 0          :        -152.44892459 Ha       -4148.34630364 eV  <-- do not rely on this value for anything but (periodic) metals
  | Electronic free energy        :        -152.44892459 Ha       -4148.34630364 eV

  Derived energy quantities:
  | Kinetic energy                :         151.99927504 Ha        4136.11071697 eV
  | Electrostatic energy          :        -282.80396703 Ha       -7695.48748502 eV
  | Energy correction for multipole
  | error in Hartree potential    :          -0.02751958 Ha          -0.74884586 eV
  | Sum of eigenvalues per atom                           :        -609.52525590 eV
  | Total energy (T->0) per atom                          :       -1037.08657591 eV  <-- do not rely on this value for anything but (periodic) metals
  | Electronic free energy per atom                       :       -1037.08657591 eV

  Self-consistency convergence accuracy:
  | Change of charge density      :  0.5387E-06
  | Change of sum of eigenvalues  : -0.2463E-04 eV
  | Change of total energy        : -0.1199E-07 eV

  Preliminary charge convergence reached. Turning off preconditioner.

  Writing Kohn-Sham eigenvalues.
  K-point:       1 at    0.000000    0.000000    0.000000 (in units of recip. lattice)

  State    Occupation    Eigenvalue [Ha]    Eigenvalue [eV]
      1       2.00000         -10.027685         -272.86718
      2       2.00000         -10.027684         -272.86717
      3       2.00000         -10.026066         -272.82314
      4       2.00000         -10.026066         -272.82313
      5       2.00000          -0.974197          -26.50926
      6       2.00000          -0.963220          -26.21054
      7       2.00000          -0.564492          -15.36062
      8       2.00000          -0.492348          -13.39747
      9       2.00000          -0.361630           -9.84046
     10       2.00000          -0.361627           -9.84038
     11       2.00000          -0.360964           -9.82234
     12       2.00000          -0.360962           -9.82227
     13       0.00000          -0.086242           -2.34678
     14       0.00000           0.057424            1.56259
     15       0.00000           0.057425            1.56262
     16       0.00000           0.059208            1.61113
     17       0.00000           0.059209            1.61115
     18       0.00000           0.139666            3.80051
     19       0.00000           0.170894            4.65027
     20       0.00000           0.178059            4.84522
     21       0.00000           0.213279            5.80361
     22       0.00000           0.220533            6.00100
     23       0.00000           0.430007           11.70110
     24       0.00000           0.604312           16.44415

  What follows are estimated values for band gap, HOMO, LUMO, etc.
  | They are estimated on a discrete k-point grid and not necessarily exact.
  | For converged numbers, create a DOS and/or band structure plot on a denser k-grid.

  Highest occupied state (VBM) at     -7.07718474 eV (relative to internal zero)
  | Occupation number:      2.00000000
  | K-point:    2108 at    0.350000    0.350000    0.000000 (in units of recip. lattice)

  Lowest unoccupied state (CBM) at    -6.47588197 eV (relative to internal zero)
  | Occupation number:      0.00000001
  | K-point:    2108 at    0.350000    0.350000    0.000000 (in units of recip. lattice)

  ESTIMATED overall HOMO-LUMO gap:      0.60130277 eV between HOMO at k-point 2108 and LUMO at k-point 2108
  | This appears to be a direct band gap.
  The gap value is above 0.2 eV. Unless you are using a very sparse k-point grid,
  this system is most likely an insulator or a semiconductor.

  Self-consistency cycle converged.

  End self-consistency iteration #    21       :  max(cpu_time)    wall_clock(cpu1)
  | Time for this iteration                    :       11.494 s          11.495 s
  | Charge density update                      :        5.963 s           5.963 s
  | Density mixing                             :        0.182 s           0.183 s
  | Hartree multipole update                   :        0.002 s           0.001 s
  | Hartree multipole summation                :        0.381 s           0.381 s
  | Integration                                :        2.643 s           2.643 s
  | Solution of K.-S. eqns.                    :        2.319 s           2.319 s
  | Total energy evaluation                    :        0.003 s           0.003 s

  Partial memory accounting:
  | Current value for overall tracked memory usage:
  |   Minimum:       24.894 MB (on task  0)
  |   Maximum:       24.951 MB (on task  1)
  |   Average:       24.942 MB
  | Peak value for overall tracked memory usage:
  |   Minimum:       70.978 MB (on task  1 after allocating wave)
  |   Maximum:       74.309 MB (on task 16 after allocating wave)
  |   Average:       72.457 MB
  | Largest tracked array allocation so far:
  |   Minimum:       35.530 MB (hamiltonian_shell on task  1)
  |   Maximum:       38.658 MB (hamiltonian_shell on task 16)
  |   Average:       36.926 MB
  Note:  These values currently only include a subset of arrays which are explicitly tracked.
  The "true" memory usage will be greater.
------------------------------------------------------------

  Energy and forces in a compact form:
  | Total energy uncorrected      :         -0.414834630363584E+04 eV
  | Total energy corrected        :         -0.414834630363584E+04 eV  <-- do not rely on this value for anything but (periodic) metals
  | Electronic free energy        :         -0.414834630363584E+04 eV

  ------------------------------------ 
  Start decomposition of the XC Energy 
  ------------------------------------ 
  X and C from original XC functional choice 
  Hartree-Fock Energy :          0.000000000 Ha              0.000000000 eV
  X Energy            :        -20.799129888 Ha           -565.973120655 eV
  C Energy            :         -0.845102715 Ha            -22.996414925 eV
  Total XC Energy     :        -21.644232603 Ha           -588.969535580 eV
  ------------------------------------ 
  LDA X and C from self-consistent density 
  X Energy LDA        :        -18.879447509 Ha           -513.735905312 eV
  C Energy LDA        :         -1.593741042 Ha            -43.367900301 eV
  ------------------------------------ 
  End decomposition of the XC Energy 
  ------------------------------------ 

------------------------------------------------------------

------------------------------------------------------------------------------
  Final output of selected total energy values:

  The following output summarizes some interesting total energy values
  at the end of a run (AFTER all relaxation, molecular dynamics, etc.).

  | Total energy of the DFT / Hartree-Fock s.c.f. calculation      :          -4148.346303636 eV
  | Final zero-broadening corrected energy (caution - metals only) :          -4148.346303636 eV
  | For reference only, the value of 1 Hartree used in FHI-aims is :             27.211384500 eV
  | For reference only, the overall average (free atom contribution
  | + realspace contribution) of the electrostatic potential after
  | s.c.f. convergence is                                          :            -13.589371242 eV

  Before relying on these values, please be sure to understand exactly which
  total energy value is referred to by a given number. Different objects may
  all carry the same name 'total energy'. Definitions:

  Total energy of the DFT / Hartree-Fock s.c.f. calculation:
  | Note that this energy does not include ANY quantities calculated after the
  | s.c.f. cycle, in particular not ANY RPA, MP2, etc. many-body perturbation terms.

  Final zero-broadening corrected energy:
  | For metallic systems only, a broadening of the occupation numbers at the Fermi
  | level can be extrapolated back to zero broadening by an electron-gas inspired
  | formula. For all systems that are not real metals, this value can be
  | meaningless and should be avoided.

------------------------------------------------------------------------------
  Methods described in the following list of references were used in this FHI-aims run.
  If you publish the results, please make sure to cite these reference if they apply.
  FHI-aims is an academic code, and for our developers (often, Ph.D. students
  and postdocs), scientific credit in the community is essential.
  Thank you for helping us!

  For any use of FHI-aims, please cite:

    Volker Blum, Ralf Gehrke, Felix Hanke, Paula Havu, Ville Havu,
    Xinguo Ren, Karsten Reuter, and Matthias Scheffler
    'Ab initio molecular simulations with numeric atom-centered orbitals'
    Computer Physics Communications 180, 2175-2196 (2009)
    http://dx.doi.org/10.1016/j.cpc.2009.06.022


  The provided symmetry information was generated with SPGlib:

    Atsushi Togo, Yusuke Seto, Dimitar Pashov
    SPGlib 1.7.3 obtained from http://spglib.sourceforge.net
    Copyright (C) 2008 Atsushi Togo


  The ELSI infrastructure was used in your run to solve the Kohn-Sham electronic structure.
  Please check out http://elsi-interchange.org to learn more.
  If scalability is important for your project, please acknowledge ELSI by citing:

    V. W-z. Yu, F. Corsetti, A. Garcia, W. P. Huhn, M. Jacquelin, W. Jia,
    B. Lange, L. Lin, J. Lu, W. Mi, A. Seifitokaldani, A. Vazquez-Mayagoitia,
    C. Yang, H. Yang, and V. Blum
    'ELSI: A unified software interface for Kohn-Sham electronic structure solvers'
    Computer Physics Communications 222, 267-285 (2018).
    http://dx.doi.org/10.1016/j.cpc.2017.09.007


  For the real-space grid partitioning and parallelization used in this calculation, please cite:

    Ville Havu, Volker Blum, Paula Havu, and Matthias Scheffler,
    'Efficient O(N) integration for all-electron electronic structure calculation'
    'using numerically tabulated basis functions'
    Journal of Computational Physics 228, 8367-8379 (2009).
    http://dx.doi.org/10.1016/j.jcp.2009.08.008

  Of course, there are many other important community references, e.g., those cited in the
  above references. Our list is limited to references that describe implementations in the
  FHI-aims code. The reason is purely practical (length of this list) - please credit others as well.

------------------------------------------------------------
          Leaving FHI-aims.
          Date     :  20200319, Time     :  194531.357

          Computational steps:
          | Number of self-consistency cycles          :           21
          | Number of SCF (re)initializations          :            1

          Detailed time accounting                     :  max(cpu_time)    wall_clock(cpu1)
          | Total time                                 :      250.870 s         251.145 s
          | Preparation time                           :        0.149 s           0.174 s
          | Boundary condition initalization           :        0.291 s           0.294 s
          | Grid partitioning                          :        0.087 s           0.090 s
          | Preloading free-atom quantities on grid    :        0.009 s           0.009 s
          | Free-atom superposition energy             :        0.053 s           0.054 s
          | Total time for integrations                :       60.803 s          60.809 s
          | Total time for solution of K.-S. equations :       50.891 s          50.926 s
          | Total time for density update              :      125.276 s         125.268 s
          | Total time for mixing & preconditioning    :        3.929 s           3.929 s
          | Total time for Hartree multipole update    :        0.039 s           0.039 s
          | Total time for Hartree multipole sum       :        8.050 s           8.052 s
          | Total time for total energy evaluation     :        0.060 s           0.064 s
          | Total time for scaled ZORA corrections     :        0.000 s           0.000 s

          Partial memory accounting:
          | Residual value for overall tracked memory usage across tasks:     0.000000 MB (should be 0.000000 MB)
          | Peak values for overall tracked memory usage:
          |   Minimum:       70.978 MB (on task  1 after allocating wave)
          |   Maximum:       74.309 MB (on task 16 after allocating wave)
          |   Average:       72.457 MB
          | Largest tracked array allocation:
          |   Minimum:       35.530 MB (hamiltonian_shell on task  1)
          |   Maximum:       38.658 MB (hamiltonian_shell on task 16)
          |   Average:       36.926 MB
          Note:  These values currently only include a subset of arrays which are explicitly tracked.
          The "true" memory usage will be greater.

          Have a nice day.
------------------------------------------------------------
