------------------------------------------------------------
          Invoking FHI-aims ...

          When using FHI-aims, please cite the following reference:

          Volker Blum, Ralf Gehrke, Felix Hanke, Paula Havu,
          Ville Havu, Xinguo Ren, Karsten Reuter, and Matthias Scheffler,
          'Ab Initio Molecular Simulations with Numeric Atom-Centered Orbitals',
          Computer Physics Communications 180, 2175-2196 (2009)

          For any questions about FHI-aims, please visit the aimsclub website
          with its forums and wiki. Contributions to both the forums and the
          wiki are warmly encouraged - they are for you, and everyone is welcome there.

------------------------------------------------------------



  Date     :  20200402, Time     :  184554.857
  Time zero on CPU 1             :   0.102174000000000E+00  s.
  Internal wall clock time zero  :           355085154.857  s.

  FHI-aims created a unique identifier for this run for later identification
  aims_uuid : 4FDDF0AC-259F-49BD-A0F4-FDBB695E74A9

  Build configuration of the current instance of FHI-aims
  -------------------------------------------------------
  FHI-aims version      : 200112
  Commit number         : 23daeca3f
  CMake host system     : Linux-3.10.0-693.21.1.el7.x86_64
  CMake version         : 3.13.3
  Fortran compiler      : /sw/installed/impi/2018.4.274-iccifort-2019.1.144-GCC-8.2.0-2.31.1/bin64/mpiifort (Intel) version 19.0.0.20181018
  Fortran compiler flags: -O3 -ip -fp-model precise
  C compiler            : /sw/installed/impi/2018.4.274-iccifort-2019.1.144-GCC-8.2.0-2.31.1/bin64/mpiicc (Intel) version 19.0.0.20181018
  C compiler flags      : -O3 -ip -fp-model precise
  Architecture          :
  Using MPI
  Using Scalapack
  Using C files
  Using LibXC
  Using SPGlib
  Using i-PI
  Using RLSY
  Linking against: /sw/installed/imkl/2019.1.144-iimpi-2019a/mkl/lib/intel64/libmkl_intel_lp64.so
                   /sw/installed/imkl/2019.1.144-iimpi-2019a/mkl/lib/intel64/libmkl_sequential.so
                   /sw/installed/imkl/2019.1.144-iimpi-2019a/mkl/lib/intel64/libmkl_core.so
                   /sw/installed/imkl/2019.1.144-iimpi-2019a/mkl/lib/intel64/libmkl_blacs_intelmpi_lp64.so
                   /sw/installed/imkl/2019.1.144-iimpi-2019a/mkl/lib/intel64/libmkl_scalapack_lp64.so

  Using       24 parallel tasks.
  Task        0 on host taurusi6225.taurus.hrsk.tu-dresden.de reporting.
  Task        1 on host taurusi6225.taurus.hrsk.tu-dresden.de reporting.
  Task        2 on host taurusi6225.taurus.hrsk.tu-dresden.de reporting.
  Task        3 on host taurusi6225.taurus.hrsk.tu-dresden.de reporting.
  Task        4 on host taurusi6225.taurus.hrsk.tu-dresden.de reporting.
  Task        5 on host taurusi6225.taurus.hrsk.tu-dresden.de reporting.
  Task        6 on host taurusi6225.taurus.hrsk.tu-dresden.de reporting.
  Task        7 on host taurusi6225.taurus.hrsk.tu-dresden.de reporting.
  Task        8 on host taurusi6225.taurus.hrsk.tu-dresden.de reporting.
  Task        9 on host taurusi6225.taurus.hrsk.tu-dresden.de reporting.
  Task       10 on host taurusi6225.taurus.hrsk.tu-dresden.de reporting.
  Task       11 on host taurusi6225.taurus.hrsk.tu-dresden.de reporting.
  Task       12 on host taurusi6225.taurus.hrsk.tu-dresden.de reporting.
  Task       13 on host taurusi6225.taurus.hrsk.tu-dresden.de reporting.
  Task       14 on host taurusi6225.taurus.hrsk.tu-dresden.de reporting.
  Task       15 on host taurusi6225.taurus.hrsk.tu-dresden.de reporting.
  Task       16 on host taurusi6225.taurus.hrsk.tu-dresden.de reporting.
  Task       17 on host taurusi6225.taurus.hrsk.tu-dresden.de reporting.
  Task       18 on host taurusi6225.taurus.hrsk.tu-dresden.de reporting.
  Task       19 on host taurusi6225.taurus.hrsk.tu-dresden.de reporting.
  Task       20 on host taurusi6225.taurus.hrsk.tu-dresden.de reporting.
  Task       21 on host taurusi6225.taurus.hrsk.tu-dresden.de reporting.
  Task       22 on host taurusi6225.taurus.hrsk.tu-dresden.de reporting.
  Task       23 on host taurusi6225.taurus.hrsk.tu-dresden.de reporting.

  Performing system and environment tests:
  | Environment variable OMP_NUM_THREADS correctly set to 1.
  | Maximum stacksize for task 0: unlimited
  | Maximum stacksize for task 1: unlimited
  | Maximum stacksize for task 2: unlimited
  | Maximum stacksize for task 3: unlimited
  | Maximum stacksize for task 4: unlimited
  | Maximum stacksize for task 5: unlimited
  | Maximum stacksize for task 6: unlimited
  | Maximum stacksize for task 7: unlimited
  | Maximum stacksize for task 8: unlimited
  | Maximum stacksize for task 9: unlimited
  | Maximum stacksize for task 10: unlimited
  | Maximum stacksize for task 11: unlimited
  | Maximum stacksize for task 12: unlimited
  | Maximum stacksize for task 13: unlimited
  | Maximum stacksize for task 14: unlimited
  | Maximum stacksize for task 15: unlimited
  | Maximum stacksize for task 16: unlimited
  | Maximum stacksize for task 17: unlimited
  | Maximum stacksize for task 18: unlimited
  | Maximum stacksize for task 19: unlimited
  | Maximum stacksize for task 20: unlimited
  | Maximum stacksize for task 21: unlimited
  | Maximum stacksize for task 22: unlimited
  | Maximum stacksize for task 23: unlimited
  | Current stacksize for task 0: unlimited
  | Current stacksize for task 1: unlimited
  | Current stacksize for task 2: unlimited
  | Current stacksize for task 3: unlimited
  | Current stacksize for task 4: unlimited
  | Current stacksize for task 5: unlimited
  | Current stacksize for task 6: unlimited
  | Current stacksize for task 7: unlimited
  | Current stacksize for task 8: unlimited
  | Current stacksize for task 9: unlimited
  | Current stacksize for task 10: unlimited
  | Current stacksize for task 11: unlimited
  | Current stacksize for task 12: unlimited
  | Current stacksize for task 13: unlimited
  | Current stacksize for task 14: unlimited
  | Current stacksize for task 15: unlimited
  | Current stacksize for task 16: unlimited
  | Current stacksize for task 17: unlimited
  | Current stacksize for task 18: unlimited
  | Current stacksize for task 19: unlimited
  | Current stacksize for task 20: unlimited
  | Current stacksize for task 21: unlimited
  | Current stacksize for task 22: unlimited
  | Current stacksize for task 23: unlimited
  | Checking for scalapack...
  | Testing pdtran()...
  | All pdtran() tests passed.

  Obtaining array dimensions for all initial allocations:
  
  -----------------------------------------------------------------------
  Parsing control.in (first pass over file, find array dimensions only).
  The contents of control.in will be repeated verbatim below
  unless switched off by setting 'verbatim_writeout .false.' .
  in the first line of control.in .
  -----------------------------------------------------------------------
  
  #===============================================================================
  # FHI-aims file: ./control.in
  # Created using the Atomic Simulation Environment (ASE)
  # Thu Apr  2 11:28:28 2020
  #===============================================================================
  xc                                 pbe
  # include_spin_orbit
  # vdw_correction_hirshfeld
  many_body_dispersion_nl 	 beta=0.81
  spin                               none
  k_grid 	 	 5 5 1
  relativistic                       atomic_zora scalar
  ### SCF settings
  adjust_scf 	 always 	 3
  # frozen_core_scf 	 .true.
  # charge_mix_param  0.05
  # occupation_type 	 gaussian 	 0.01
  # sc_accuracy_eev   1E-3 	 	 # sum of eigenvalues convergence
  # sc_accuracy_etot  1E-6 	 	 # total energy convergence
  # sc_accuracy_rho   1E-3 	 	 # electron density convergence
  # elsi_restart 	 read_and_write 	 1000
  ### geometry optimisation section
  relax_geometry 	 bfgs 	 1E-2
  relax_unit_cell 	 full
  #===============================================================================
  
  ################################################################################
  #
  #  FHI-aims code project
  # Volker Blum, Fritz Haber Institute Berlin, 2009
  #
  #  Suggested "tight" defaults for Se atom (to be pasted into control.in file)
  #
  ################################################################################
    species        Se
  #     global species definitions
      nucleus             34
      mass                78.96
  #
      l_hartree           6
  #
      cut_pot             4.0          2.0  1.0
      basis_dep_cutoff    1e-4
  #
      radial_base         55 7.0
      radial_multiplier   2
      angular_grids       specified
        division   0.0830  110
        division   0.1357  194
        division   0.7377  302
        division   0.8610  434
  #      division   0.9640  590
  #      division   1.0773  770
  #      division   2.5539  974
  #      outer_grid  974
        outer_grid  434
  ################################################################################
  #
  #  Definition of "minimal" basis
  #
  ################################################################################
  #     valence basis states
      valence      4  s   2.
      valence      4  p   4.
      valence      3  d  10.
  #     ion occupancy
      ion_occ      4  s   1.
      ion_occ      4  p   3.
      ion_occ      3  d  10.
  ################################################################################
  #
  #  Suggested additional basis functions. For production calculations,
  #  uncomment them one after another (the most important basis functions are
  #  listed first).
  #
  #  Constructed for dimers: 1.85 A, 2.15 A, 2.50 A, 3.00 A, 4.00 A
  #
  ################################################################################
  #  "First tier" - improvements: -336.21 meV to -36.85 meV
       hydro 3 d 4.3
       hydro 2 p 1.6
       hydro 4 f 7.2
       ionic 4 s auto
  #  "Second tier" - improvements: -14.39 meV to -1.49 meV
  #     hydro 5 g 10.4
  #     hydro 4 p 4.5
  #     hydro 4 d 6.2
  #     hydro 4 f 11.2
  #     hydro 1 s 0.65
  #     hydro 6 h 15.2
  #  "Third tier" - improvements: -0.46 meV and below
  #     hydro 5 g 14.4
  #     ionic 4 d auto
  #     hydro 4 f 22.4
  #     hydro 5 f 7.4
  #     hydro 5 p 8
  #     hydro 5 s 9.4
  #  "Fourth tier" - improvements: -0.12 meV and below
  #     hydro 5 d 11.6
  #     hydro 6 h 18
  #     hydro 4 p 4
  #     hydro 5 f 16
  #     hydro 4 s 3.9
  #
  #
  ################################################################################
  #
  #  FHI-aims code project
  # Volker Blum, Fritz Haber Institute Berlin, 2009
  #
  #  Suggested "tight" defaults for Pt atom (to be pasted into control.in file)
  #
  ################################################################################
    species        Pt
  #     global species definitions
      nucleus             78
      mass                195.084
  #
      l_hartree           6
  #
      cut_pot             4.0  2.0  1.0
      basis_dep_cutoff    1e-4
  #
      radial_base         72 7.0
      radial_multiplier   2
      angular_grids specified
        division   0.3279   50
        division   0.7476  110
        division   1.0850  194
        division   1.2652  302
        division   1.6291  434
  #      division   1.9966  590
  #      division   2.1207  770
  #      division   2.1534  974
  #      division   2.7454 1202
  #      outer_grid    974
        outer_grid  434
  ################################################################################
  #
  #  Definition of "minimal" basis
  #
  ################################################################################
  #     valence basis states
      valence      6  s   1.
      valence      5  p   6.
      valence      5  d   9.
      valence      4  f  14.
  #     ion occupancy
      ion_occ     6  s   0.
      ion_occ     5  p   6.
      ion_occ     5  d   8.
      ion_occ     4  f   14.
  ################################################################################
  #
  #  Suggested additional basis functions. For production calculations,
  #  uncomment them one after another (the most important basis functions are
  #  listed first).
  #
  #  Constructed for dimers: 2.00, 2.275, 2.75, 3.75 AA
  #
  ################################################################################
  #  "First tier" - max. impr. -193.66  meV, min. impr. -18.25 meV
       hydro 4 f 7.4
       ionic 6 p auto
       hydro 5 g 9.8
       ionic 6 s auto
       hydro 3 d 2.6
  #  "Second tier" - max. impr. -10.25  meV, min. impr. -0.56 meV
  #     hydro 6 h 14
  #     hydro 5 f 14
  #     hydro 4 d 4
  #     hydro 3 p 3.3
  #     hydro 5 g 16.4
  #     hydro 1 s 0.5
  #  "Third tier" - max. impr. -0.72  meV, min. impr. -0.18 meV
  #     hydro 5 f 9
  #     ionic 5 d auto
  #     hydro 6 h 16.4
  #     hydro 5 g 12.4
  #     hydro 5 g 34
  #     hydro 5 s 13.6
  #     hydro 5 p 10.4
  #  Further functions:
  
  -----------------------------------------------------------------------
  Completed first pass over input file control.in .
  -----------------------------------------------------------------------
  
  
  -----------------------------------------------------------------------
  Parsing geometry.in (first pass over file, find array dimensions only).
  The contents of geometry.in will be repeated verbatim below
  unless switched off by setting 'verbatim_writeout .false.' .
  in the first line of geometry.in .
  -----------------------------------------------------------------------
  
  #=======================================================
  # FHI-aims file: geometry.in
  # Created using the Atomic Simulation Environment (ASE)
  # Thu Apr  2 11:28:28 2020
  #=======================================================
  lattice_vector 3.7869355100000002 0.0000000000000000 0.0000000000000000
  lattice_vector -1.8934677600000001 3.2795823600000000 0.0000000000000000
  lattice_vector 0.0000000000000000 0.0000000000000000 102.6121382299999993
  atom_frac 0.0000000000000000 0.6666666666666666 0.5000000000269269 Se
  atom_frac 0.3333333342135524 0.3333333333333333 0.4745435747437404 Se
  atom_frac 0.6666666657864475 0.0000000000000000 0.4872717874340609 Pt
  symmetry_n_params 11 2 9
  symmetry_params a1 c3 x0 x1 x2 x3 x4 x5 x6 x7 x8
  symmetry_lv a1 , 0 , 0
  symmetry_lv -a1/2 , sqrt(3.0)*a1/2 , 0
  symmetry_lv 0 , 0 , c3
  symmetry_frac x0 , x1 , x2
  symmetry_frac x3 , x4 , x5
  symmetry_frac x6 , x7 , x8
  
  -----------------------------------------------------------------------
  Completed first pass over input file geometry.in .
  -----------------------------------------------------------------------
  

  Basic array size parameters:
  | Number of species                 :        2
  | Number of atoms                   :        3
  | Number of lattice vectors         :        3
  | Max. basis fn. angular momentum   :        4
  | Max. atomic/ionic basis occupied n:        6
  | Max. number of basis fn. types    :        3
  | Max. radial fns per species/type  :       14
  | Max. logarithmic grid size        :     1487
  | Max. radial integration grid size :      145
  | Max. angular integration grid size:      434
  | Max. angular grid division number :        8
  | Radial grid for Hartree potential :     1487
  | Number of spin channels           :        1

------------------------------------------------------------
          Reading file control.in.
------------------------------------------------------------
  XC: Using PBE gradient-corrected functionals.
  Using libMBD for calculating MBD and TS energies
  Spin treatment: No spin polarisation.
  Found k-point grid:         5         5         1
  Scalar relativistic treatment of kinetic energy: on-site free-atom approximation to ZORA.
  S.C.F. convergence parameters will be adjusted in iteration number     3 of each new s.c.f. cycle.
  Geometry relaxation: Modified BFGS - TRM (trust radius method) for lattice optimization.
  Convergence accuracy for geometry relaxation: Maximum force <   0.100000E-01 eV/A.
 
  Reading configuration options for species Se                  .
  | Found nuclear charge :  34.0000
  | Found atomic mass :    78.9600000000000      amu
  | Found l_max for Hartree potential  :   6
  | Found cutoff potl. onset [A], width [A], scale factor :    4.00000    2.00000    1.00000
  | Threshold for basis-dependent cutoff potential is   0.100000E-03
  | Found data for basic radial integration grid :    55 points, outermost radius =    7.000 A
  | Found multiplier for basic radial grid :   2
  | Found angular grid specification: user-specified.
  | Specified grid contains     5 separate shells.
  | Check grid settings after all constraints further below.
  | Found free-atom valence shell :  4 s   2.000
  | Found free-atom valence shell :  4 p   4.000
  | Found free-atom valence shell :  3 d  10.000
  | Found free-ion valence shell :  4 s   1.000
  | Found free-ion valence shell :  4 p   3.000
  | Found free-ion valence shell :  3 d  10.000
  | Found hydrogenic basis function :  3 d   4.300
  | Found hydrogenic basis function :  2 p   1.600
  | Found hydrogenic basis function :  4 f   7.200
  | Found ionic basis function :  4 s , default cutoff radius.
  Species Se                  : Missing cutoff potential type.
  Defaulting to exp(1/x)/(1-x)^2 type cutoff potential.
  Species Se: No 'logarithmic' tag. Using default grid for free atom:
  | Default logarithmic grid data [bohr] : 0.1000E-03 0.1000E+03 0.1012E+01
  | Will include ionic basis functions of  2.0-fold positive Se                   ion.
  Species Se: On-site basis accuracy parameter (for Gram-Schmidt orthonormalisation) not specified.
  Using default value basis_acc =  0.1000000E-03.
  Species Se                  : Using default innermost maximum threshold i_radial=  2 for radial functions.
  Species Se                  : Default cutoff onset for free atom density etc. : 0.40000000E+01 AA.
  Species Se                  : Basic radial grid will be enhanced according to radial_multiplier =   2, to contain   111 grid points.
 
  Reading configuration options for species Pt                  .
  | Found nuclear charge :  78.0000
  | Found atomic mass :    195.084000000000      amu
  | Found l_max for Hartree potential  :   6
  | Found cutoff potl. onset [A], width [A], scale factor :    4.00000    2.00000    1.00000
  | Threshold for basis-dependent cutoff potential is   0.100000E-03
  | Found data for basic radial integration grid :    72 points, outermost radius =    7.000 A
  | Found multiplier for basic radial grid :   2
  | Found angular grid specification: user-specified.
  | Specified grid contains     6 separate shells.
  | Check grid settings after all constraints further below.
  | Found free-atom valence shell :  6 s   1.000
  | Found free-atom valence shell :  5 p   6.000
  | Found free-atom valence shell :  5 d   9.000
  | Found free-atom valence shell :  4 f  14.000
  | Found free-ion valence shell :  6 s   0.000
  | Found free-ion valence shell :  5 p   6.000
  | Found free-ion valence shell :  5 d   8.000
  | Found free-ion valence shell :  4 f  14.000
  | Found hydrogenic basis function :  4 f   7.400
  | Found ionic basis function :  6 p , default cutoff radius.
  | Found hydrogenic basis function :  5 g   9.800
  | Found ionic basis function :  6 s , default cutoff radius.
  | Found hydrogenic basis function :  3 d   2.600
  Species Pt                  : Missing cutoff potential type.
  Defaulting to exp(1/x)/(1-x)^2 type cutoff potential.
  Species Pt: No 'logarithmic' tag. Using default grid for free atom:
  | Default logarithmic grid data [bohr] : 0.1000E-03 0.1000E+03 0.1012E+01
  | Will include ionic basis functions of  2.0-fold positive Pt                   ion.
  Species Pt: On-site basis accuracy parameter (for Gram-Schmidt orthonormalisation) not specified.
  Using default value basis_acc =  0.1000000E-03.
  Species Pt                  : Using default innermost maximum threshold i_radial=  2 for radial functions.
  Species Pt                  : Default cutoff onset for free atom density etc. : 0.40000000E+01 AA.
  Species Pt                  : Basic radial grid will be enhanced according to radial_multiplier =   2, to contain   145 grid points.
 
  Finished reading input file 'control.in'. Consistency checks are next.
 
  MPI_IN_PLACE appears to work with this MPI implementation.
  | Keeping use_mpi_in_place .true. (see manual).
  Target number of points in a grid batch is not set. Defaulting to  100
  Method for grid partitioning is not set. Defaulting to parallel hash+maxmin partitioning.
  Batch size limit is not set. Defaulting to    200
  By default, will store active basis functions for each batch.
  If in need of memory, prune_basis_once .false. can be used to disable this option.
  communication_type for Hartree potential was not specified.
  Defaulting to calc_hartree .
  Defaulting to Pulay charge density mixer.
  Pulay mixer: Number of relevant iterations not set.
  Defaulting to    8 iterations.
  Pulay mixer: Number of initial linear mixing iterations not set.
  Defaulting to    0 iterations.
  Work space size for distributed Hartree potential not set.
  Defaulting to   0.200000E+03 MB.
  Mixing parameter for charge density mixing has not been set.
  Using default: charge_mix_param =     0.0500.
  The mixing parameter will be adjusted in iteration number     3 of each s.c.f. cycle (i.e., each geometry step).
  Algorithm-dependent basis array size parameters:
  | n_max_pulay                         :        8
  Maximum number of self-consistency iterations not provided.
  Presetting  1000 iterations.
  Presetting      1001 iterations before the initial mixing cycle
  is restarted anyway using the sc_init_iter criterion / keyword.
  Presetting a factor      1.000 between actual scf density residual
  and density convergence criterion sc_accuracy_rho below which sc_init_iter
  takes no effect.
 * No s.c.f. convergence criteria (sc_accuracy_*) were provided in control.in.
 * The run will proceed with a reasonable default guess, but please check whether.
 * the s.c.f. cycles seem to take too much or too little time.
  No maximum number of relaxation steps, defaulting to     1000
  Default initial Hessian is Lindh matrix (thres = 15.00) plus  0.200000E+01 eV/A^2 times unity.
  No maximum energy tolerance for TRM/BFGS moves, defaulting to   0.100000E-02
  Maximum energy tolerance by which TRM/BFGS trajectory may increase over multiple steps:   0.300000E-02
  No harmonic length scale. Defaulting to   0.250000E-01 A.
  No trust radius initializer. Defaulting to   0.200000E+00 A.
  Unit cell relaxation: Unit cell will be relaxed fully.
  Unit cell relaxation: Analytical stress will be used.
  Analytical stress will be computed.
  Analytical stress calculation: Only the upper triangle is calculated.
                                 Final output is symmetrized.
  Analytical stress calculation: scf convergence accuracy of stress not set.
                                 Analytical stress self-consistency will not be checked explicitly.
                                 Be sure to set other criteria like sc_accuracy_rho tight enough.
 * Notice: The s.c.f. convergence criterion sc_accuracy_rho was not provided.
 * We used to stop in this case, and ask the user to provide reasonable
 * scf convergence criteria. However, this led some users to employ criteria
 * that led to extremely long run times, e.g., for simple relaxation.
 * We now preset a default value for sc_accuracy_rho if it is not set.
 * You may still wish to check if this setting is too tight or too loose for your needs.
 * Based on n_atoms, FHI-aims chose sc_accuracy_rho =  0.100000E-05 .
  Force calculation: scf convergence accuracy of forces not set.
  Defaulting to 'sc_accuracy_forces not_checked'.
  Handling of forces: Unphysical translation and rotation will be removed from forces.
  No accuracy limit for integral partition fn. given. Defaulting to  0.1000E-14.
  No threshold value for u(r) in integrations given. Defaulting to  0.1000E-05.
  No occupation type (smearing scheme) given. Defaulting to Gaussian broadening, width =  0.1000E-01 eV.
  The width will be adjusted in iteration number     3 of each s.c.f. cycle (i.e., each geometry step).
  S.C.F. convergence parameters will be adjusted in iteration number     3 of the first full s.c.f. cycle only.
  No accuracy for occupation numbers given. Defaulting to  0.1000E-12.
  No threshold value for occupation numbers given. Defaulting to  0.0000E+00.
  No accuracy for fermi level given. Defaulting to  0.1000E-19.
  Maximum # of iterations to find E_F not set. Defaulting to  200.
  Preferred method for the eigenvalue solver ('KS_method') not specified in 'control.in'.
  Defaulting to serial version, LAPACK (via ELSI), since more k-points than CPUs available.
  Will not use alltoall communication since running on < 1024 CPUs.
  Threshold for basis singularities not set.
  Default threshold for basis singularities:  0.1000E-04
  partition_type (choice of integration weights) for integrals was not specified.
  | Using a version of the partition function of Stratmann and coworkers ('stratmann_sparse').
  | At each grid point, the set of atoms used to build the partition table is smoothly restricted to
  | only those atoms whose free-atom density would be non-zero at that grid point.
  Partitioning for Hartree potential was not defined. Using partition_type for integrals.
  | Adjusted default value of keyword multip_moments_threshold to:       0.10000000E-11
  | This value may affect high angular momentum components of the Hartree potential in periodic systems.
  Angular momentum expansion for Kerker preconditioner not set explicitly.
  | Using default value of   0
  No explicit requirement for turning off preconditioner.
  | By default, it will be turned off when the charge convergence reaches
  | sc_accuracy_rho  =   0.100000E-05
  No special mixing parameter while Kerker preconditioner is on.
  Using default: charge_mix_param =     0.0500.
  No q(lm)/r^(l+1) cutoff set for long-range Hartree potential.
  | Using default value of  0.100000E-09 .
  | Verify using the multipole_threshold keyword.
  Defaulting to new monopole extrapolation.
  Density update method: automatic selection selected.
  Using density matrix based charge density update.
  Using density matrix based charge density update.
  Using packed matrix style: index .
  Geometry relaxation: A file "geometry.in.next_step" is written out by default after each step.
  | This file contains the geometry of the current relaxation step as well as
  | the current Hessian matrix needed to restart the relaxation algorithm.
  | If you do not want part or all of this information, use the keywords
  | "write_restart_geometry" or "hessian_to_restart_geometry" to switch the output off.
  Defaulting to use time-reversal symmetry for k-point grid.
  Charge integration errors on the 3D integration grid will be compensated
  by explicit normalization and distribution of residual charges.
  Use the "compensate_multipole_errors" flag to change this behaviour.
------------------------------------------------------------


------------------------------------------------------------
          Reading geometry description geometry.in.
------------------------------------------------------------
  Input structure read successfully.
  The structure contains        3 atoms,  and a total of        146.000 electrons.

  Input geometry:
  | Unit cell:
  |        3.78693551        0.00000000        0.00000000
  |       -1.89346776        3.27958236        0.00000000
  |        0.00000000        0.00000000      102.61213823
  | Atomic structure:
  |       Atom                x [A]            y [A]            z [A]
  |    1: Species Se           -1.26231184        2.18638824       51.30606912
  |    2: Species Se            0.63115592        1.09319412       48.69393089
  |    3: Species Pt            2.52462367        0.00000000       50.00000001

  Lattice parameters for 3D lattice (in Angstroms) :     3.786936    3.786936  102.612138
  Angle(s) between unit vectors (in degrees)       :    90.000000   90.000000  120.000000

  | The smallest distance between any two atoms is         2.54678425 AA.
  | The first atom of this pair is atom number                      1 .
  | The second atom of this pair is atom number                     3 .
  | Wigner-Seitz cell of the first atom image          -1     0     1 .
  | (The Wigner-Seitz cell of the second atom is 0 0 0  by definition.)

  Symmetry information by spglib:
  | Precision set to  0.1E-04
  | Number of Operations  : 12
  | Space group           : 164
  | International         : P-3m1
  | Schoenflies           : D3d^3

  Quantities derived from the lattice vectors:
  | Reciprocal lattice vector 1:  1.659174  0.957925  0.000000
  | Reciprocal lattice vector 2:  0.000000  1.915849  0.000000
  | Reciprocal lattice vector 3:  0.000000  0.000000  0.061232
  | Unit cell volume                               :   0.127440E+04  A^3

  Range separation radius for Ewald summation (hartree_convergence_parameter):      5.00000000 bohr.

  Fractional coordinates:
                         L1                L2                L3
       atom_frac        -0.00000000        0.66666667        0.50000000  Se
       atom_frac         0.33333333        0.33333333        0.47454357  Se
       atom_frac         0.66666667        0.00000000        0.48727179  Pt

  Number of empty states per atom not set in control.in - providing a guess from actual geometry.
  | Total number of empty states used during s.c.f. cycle:       20
  If you use a very high smearing, use empty_states (per atom!) in control.in to increase this value.

  Structure-dependent array size parameters: 
  | Maximum number of distinct radial functions  :       31
  | Maximum number of basis functions            :      133
  | Number of Kohn-Sham states (occupied + empty):       93
------------------------------------------------------------

------------------------------------------------------------
          Preparing all fixed parts of the calculation.
------------------------------------------------------------
  Determining machine precision:
    2.225073858507201E-308
  Setting up grids for atomic and cluster calculations.

  Creating wave function, potential, and density for free atoms.

  Species: Se

  List of occupied orbitals and eigenvalues:
    n    l              occ      energy [Ha]    energy [eV]
    1    0           2.0000      -466.337810    -12689.6975
    2    0           2.0000       -59.202598     -1610.9847
    3    0           2.0000        -7.847116      -213.5309
    4    0           2.0000        -0.634372       -17.2621
    2    1           6.0000       -52.061107     -1416.6548
    3    1           6.0000        -5.620941      -152.9536
    4    1           4.0000        -0.238469        -6.4891
    3    2          10.0000        -1.951949       -53.1152


  Species: Pt

  List of occupied orbitals and eigenvalues:
    n    l              occ      energy [Ha]    energy [eV]
    1    0           2.0000     -3153.103304    -85800.3064
    2    0           2.0000      -515.589489    -14029.9038
    3    0           2.0000      -119.501787     -3251.8091
    4    0           2.0000       -25.569766      -695.7887
    5    0           2.0000        -3.736651      -101.6795
    6    0           1.0000        -0.206416        -5.6169
    2    1           6.0000      -445.953190    -12135.0037
    3    1           6.0000       -99.656176     -2711.7825
    4    1           6.0000       -19.104871      -519.8700
    5    1           6.0000        -2.054483       -55.9053
    3    2          10.0000       -78.244476     -2129.1405
    4    2          10.0000       -11.276663      -306.8536
    5    2           9.0000        -0.224682        -6.1139
    4    3          14.0000        -2.581704       -70.2517

  Creating fixed part of basis set: Ionic, confined, hydrogenic.
 
  Se                   ion:

  List of free ionic orbitals and eigenvalues:
    n    l      energy [Ha]    energy [eV]
    1    0      -467.261007    -12714.8189
    2    0       -60.104893     -1635.5374
    3    0        -8.743714      -237.9286
    4    0        -1.414053       -38.4783
    2    1       -52.964156     -1441.2280
    3    1        -6.516916      -177.3343
    4    1        -0.961869       -26.1738
    3    2        -2.844511       -77.4031


  List of ionic basis orbitals and eigenvalues:
    n    l      energy [Ha]    energy [eV]    outer radius [A]
    4    0        -1.414046       -38.4782       4.083166

 
  Se                   hydrogenic:
 
  List of hydrogenic basis orbitals: 
    n    l      effective z      eigenvalue [eV]  inner max. [A]     outer max. [A]     outer radius [A]   
    3    2         4.300000       -27.9518           1.103845           1.103845           5.278265
    2    1         1.600000        -8.6828           1.326010           1.326010           5.475439
    4    3         7.200000       -44.0822           1.173422           1.173422           4.965294
 
 
  Pt                   ion:

  List of free ionic orbitals and eigenvalues:
    n    l      energy [Ha]    energy [eV]
    1    0     -3153.944388    -85823.1934
    2    0      -516.374474    -14051.2643
    3    0      -120.278274     -3272.9384
    4    0       -26.344243      -716.8633
    5    0        -4.507613      -122.6584
    2    1      -446.736765    -12156.3259
    3    1      -100.432254     -2732.9007
    4    1       -19.879176      -540.9399
    5    1        -2.820901       -76.7606
    3    2       -79.020090     -2150.2461
    4    2       -12.050716      -327.9167
    5    2        -0.950990       -25.8778
    4    3        -3.355307       -91.3026


  List of ionic basis orbitals and eigenvalues:
    n    l      energy [Ha]    energy [eV]    outer radius [A]
    6    1        -0.526730       -14.3331       5.414053
    6    0        -0.812719       -22.1152       5.155675

 
  Pt                   hydrogenic:
 
  List of hydrogenic basis orbitals: 
    n    l      effective z      eigenvalue [eV]  inner max. [A]     outer max. [A]     outer radius [A]   
    4    3         7.400000       -46.5653           1.146169           1.146169           4.909628
    5    4         9.800000       -52.2674           1.343596           1.343596           5.155675
    3    2         2.600000       -10.1361           1.823895           1.823895           5.480646
 

  Adding cutoff potential to free-atom effective potential.
  Creating atomic-like basis functions for current effective potential.

  Species Se                  :

  List of atomic basis orbitals and eigenvalues:
    n    l      energy [Ha]    energy [eV]    outer radius [A]
    1    0      -466.337810    -12689.6975       0.309561
    2    0       -59.202598     -1610.9847       0.885812
    3    0        -7.847116      -213.5309       2.355489
    4    0        -0.634372       -17.2621       5.214131
    2    1       -52.061107     -1416.6548       0.907737
    3    1        -5.620941      -152.9536       2.694529
    4    1        -0.238469        -6.4891       5.408909
    3    2        -1.951949       -53.1152       4.083166


  Species Pt                  :

  List of atomic basis orbitals and eigenvalues:
    n    l      energy [Ha]    energy [eV]    outer radius [A]
    1    0     -3153.103304    -85800.3064       0.122365
    2    0      -515.589489    -14029.9038       0.321431
    3    0      -119.501787     -3251.8091       0.669333
    4    0       -25.569766      -695.7887       1.393787
    5    0        -3.736651      -101.6795       3.402290
    6    0        -0.206416        -5.6169       5.414053
    2    1      -445.953190    -12135.0037       0.333438
    3    1       -99.656176     -2711.7825       0.720273
    4    1       -19.104871      -519.8700       1.575030
    5    1        -2.054483       -55.9053       4.398103
    3    2       -78.244476     -2129.1405       0.765673
    4    2       -11.276663      -306.8536       1.915300
    5    2        -0.224682        -6.1139       5.348269
    4    3        -2.581704       -70.2517       3.402290

  Assembling full basis from fixed parts.
  | Species Se :   atomic orbital   1 s accepted.
  | Species Se :   atomic orbital   2 s accepted.
  | Species Se :   atomic orbital   3 s accepted.
  | Species Se :    ionic orbital   4 s accepted.
  | Species Se :   atomic orbital   4 s accepted.
  | Species Se :   atomic orbital   2 p accepted.
  | Species Se :   atomic orbital   3 p accepted.
  | Species Se :   atomic orbital   4 p accepted.
  | Species Se :    hydro orbital   2 p accepted.
  | Species Se :   atomic orbital   3 d accepted.
  | Species Se :    hydro orbital   3 d accepted.
  | Species Se :    hydro orbital   4 f accepted.
  | Species Pt :   atomic orbital   1 s accepted.
  | Species Pt :   atomic orbital   2 s accepted.
  | Species Pt :   atomic orbital   3 s accepted.
  | Species Pt :   atomic orbital   4 s accepted.
  | Species Pt :   atomic orbital   5 s accepted.
  | Species Pt :    ionic orbital   6 s accepted.
  | Species Pt :   atomic orbital   6 s accepted.
  | Species Pt :   atomic orbital   2 p accepted.
  | Species Pt :   atomic orbital   3 p accepted.
  | Species Pt :   atomic orbital   4 p accepted.
  | Species Pt :   atomic orbital   5 p accepted.
  | Species Pt :    ionic orbital   6 p accepted.
  | Species Pt :   atomic orbital   3 d accepted.
  | Species Pt :   atomic orbital   4 d accepted.
  | Species Pt :   atomic orbital   5 d accepted.
  | Species Pt :    hydro orbital   3 d accepted.
  | Species Pt :   atomic orbital   4 f accepted.
  | Species Pt :    hydro orbital   4 f accepted.
  | Species Pt :    hydro orbital   5 g accepted.
 
  Basis size parameters after reduction:
  | Total number of radial functions:       31
  | Total number of basis functions :      133
 
  Per-task memory consumption for arrays in subroutine allocate_ext:
  |          11.805792MB.
  Testing on-site integration grid accuracy.
  |  Species  Function  <phi|h_atom|phi> (log., in eV)  <phi|h_atom|phi> (rad., in eV)
           1        1             -12689.6974611609             -12689.6967666984
           1        2              -1610.9846578580              -1610.9846472470
           1        3               -213.5308789869               -213.5308777267
           1        4                -17.0464428502                -17.0464426496
           1        5                  6.7356859379                  6.7356842047
           1        6              -1416.6548010133              -1416.6548002108
           1        7               -152.9535734377               -152.9535727493
           1        8                 -6.4896265677                 -6.4896303794
           1        9                  5.2703037283                  5.2701679583
           1       10                -53.1152220964                -53.1152219035
           1       11                  7.6186674138                  7.6186665630
           1       12                 23.1072799052                 23.1072803137
           2       13             -85800.3063919402             -85800.2856196525
           2       14             -14029.9038190300             -14029.9034024833
           2       15              -3251.8090796931              -3251.8090493723
           2       16               -695.7887467643               -695.7887380850
           2       17               -101.6794541340               -101.6794523393
           2       18                 -5.0775855771                 -5.0775852328
           2       19                  4.7711468015                  4.7712019679
           2       20             -12135.0037192377             -12135.0037104521
           2       21              -2711.7825232731              -2711.7825171064
           2       22               -519.8699987964               -519.8699936816
           2       23                -55.9053342208                -55.9053330056
           2       24                  0.5776141100                  0.5776162186
           2       25              -2129.1405232679              -2129.1405210333
           2       26               -306.8536046287               -306.8536019169
           2       27                 -6.1140333562                 -6.1140328165
           2       28                  6.1273756151                  6.1274132672
           2       29                -70.2517499694                -70.2517493419
           2       30                 21.2263775581                 21.2263774791
           2       31                 35.7069304608                 35.7069304867

  Preparing densities etc. for the partition functions (integrals / Hartree potential).

  Preparations completed.
  max(cpu_time)          :      0.648 s.
  Wall clock time (cpu1) :      0.705 s.
------------------------------------------------------------

------------------------------------------------------------
          Begin self-consistency loop: Initialization.

          Date     :  20200402, Time     :  184555.974
------------------------------------------------------------

  Initializing index lists of integration centers etc. from given atomic structure:
  Mapping all atomic coordinates to central unit cell.

  Initializing the k-points
  Using symmetry for reducing the k-points
  | k-points reduced from:       25 to       13
  | Number of k-points                             :        13
  The eigenvectors in the calculations are COMPLEX.
  | K-points in task   0:         0
  | K-points in task   1:         1
  | K-points in task   2:         1
  | K-points in task   3:         1
  | K-points in task   4:         1
  | K-points in task   5:         1
  | K-points in task   6:         1
  | K-points in task   7:         1
  | K-points in task   8:         1
  | K-points in task   9:         1
  | K-points in task  10:         1
  | K-points in task  11:         1
  | K-points in task  12:         1
  | K-points in task  13:         1
  | K-points in task  14:         0
  | K-points in task  15:         0
  | K-points in task  16:         0
  | K-points in task  17:         0
  | K-points in task  18:         0
  | K-points in task  19:         0
  | K-points in task  20:         0
  | K-points in task  21:         0
  | K-points in task  22:         0
  | K-points in task  23:         0
  | Number of basis functions in the Hamiltonian integrals :      2826
  | Number of basis functions in a single unit cell        :       133
  | Number of centers in hartree potential         :       278
  | Number of centers in hartree multipole         :       141
  | Number of centers in electron density summation:       117
  | Number of centers in basis integrals           :       177
  | Number of centers in integrals                 :       108
  | Number of centers in hamiltonian               :       117
  | Consuming         13 KiB for k_phase.
  | Number of super-cells (origin) [n_cells]                     :         507
  | Number of super-cells (after PM_index) [n_cells]             :          65
  | Number of super-cells in hamiltonian [n_cells_in_hamiltonian]:          44
  | Size of matrix packed + index [n_hamiltonian_matrix_size] :      152772

  Initializing relaxation algorithms.
  | Estimated reciprocal-space cutoff momentum G_max:         1.90186217 bohr^-1 .
  | Reciprocal lattice points for long-range Hartree potential:     980
  Partitioning the integration grid into batches with parallel hashing+maxmin method.
  | Number of batches:     1305
  | Maximal batch size:     169
  | Minimal batch size:      69
  | Average batch size:      76.268
  | Standard deviation of batch sizes:      13.152

  Integration load balanced across    24 MPI tasks.
  Work distribution over tasks is as follows:
  Task     0 has       4161 integration points.
  Task     1 has       4118 integration points.
  Task     2 has       4135 integration points.
  Task     3 has       4188 integration points.
  Task     4 has       4161 integration points.
  Task     5 has       4163 integration points.
  Task     6 has       4168 integration points.
  Task     7 has       4163 integration points.
  Task     8 has       4163 integration points.
  Task     9 has       4122 integration points.
  Task    10 has       4135 integration points.
  Task    11 has       4131 integration points.
  Task    12 has       4191 integration points.
  Task    13 has       4133 integration points.
  Task    14 has       4188 integration points.
  Task    15 has       4118 integration points.
  Task    16 has       4131 integration points.
  Task    17 has       4133 integration points.
  Task    18 has       4170 integration points.
  Task    19 has       4118 integration points.
  Task    20 has       4132 integration points.
  Task    21 has       4118 integration points.
  Task    22 has       4130 integration points.
  Task    23 has       4160 integration points.
  Initializing partition tables, free-atom densities, potentials, etc. across the integration grid (initialize_grid_storage).
  | initialize_grid_storage: Actual outermost partition radius vs. multipole_radius_free
  | (-- VB: in principle, multipole_radius_free should be larger, hence this output)
  | Species        1: Confinement radius =              6.000000000000000 AA, multipole_radius_free =              6.037996416842453 AA.
  | Species        1: outer_partition_radius set to              6.037996416842453 AA .
  | Species        2: Confinement radius =              6.000000000000000 AA, multipole_radius_free =              6.043738901464199 AA.
  | Species        2: outer_partition_radius set to              6.043738901464199 AA .
  | The sparse table of interatomic distances needs        180.57 kbyte instead of       250.63 kbyte of memory.
  | Net number of integration points:    99530
  | of which are non-zero points    :    86758
  | Numerical average free-atom electrostatic potential    :     -0.94761839 eV
  Renormalizing the initial density to the exact electron count on the 3D integration grid.
  | Initial density: Formal number of electrons (from input files) :     146.0000000000
  | Integrated number of electrons on 3D grid     :     146.0000589397
  | Charge integration error                      :       0.0000589397
  | Normalization factor for density and gradient :       0.9999995963
  Renormalizing the free-atom superposition density to the exact electron count on the 3D integration grid.
  | Formal number of electrons (from input files) :     146.0000000000
  | Integrated number of electrons on 3D grid     :     146.0000589397
  | Charge integration error                      :       0.0000589397
  | Normalization factor for density and gradient :       0.9999995963
  Obtaining max. number of non-zero basis functions in each batch (get_n_compute_maxes).
  | Maximal number of non-zero basis functions:      716 in task     0
  | Maximal number of non-zero basis functions:      705 in task     1
  | Maximal number of non-zero basis functions:      701 in task     2
  | Maximal number of non-zero basis functions:      707 in task     3
  | Maximal number of non-zero basis functions:      714 in task     4
  | Maximal number of non-zero basis functions:      698 in task     5
  | Maximal number of non-zero basis functions:      708 in task     6
  | Maximal number of non-zero basis functions:      715 in task     7
  | Maximal number of non-zero basis functions:      728 in task     8
  | Maximal number of non-zero basis functions:      714 in task     9
  | Maximal number of non-zero basis functions:      705 in task    10
  | Maximal number of non-zero basis functions:      700 in task    11
  | Maximal number of non-zero basis functions:      710 in task    12
  | Maximal number of non-zero basis functions:      697 in task    13
  | Maximal number of non-zero basis functions:      701 in task    14
  | Maximal number of non-zero basis functions:      700 in task    15
  | Maximal number of non-zero basis functions:      708 in task    16
  | Maximal number of non-zero basis functions:      698 in task    17
  | Maximal number of non-zero basis functions:      709 in task    18
  | Maximal number of non-zero basis functions:      694 in task    19
  | Maximal number of non-zero basis functions:      713 in task    20
  | Maximal number of non-zero basis functions:      707 in task    21
  | Maximal number of non-zero basis functions:      709 in task    22
  | Maximal number of non-zero basis functions:      709 in task    23
  Allocating        0.000 MB for KS_eigenvector_complex
  Integrating Hamiltonian matrix: batch-based integration.
  Time summed over all CPUs for integration: real work        8.348 s, elapsed        8.537 s
  Integrating overlap matrix.
  Time summed over all CPUs for integration: real work        5.620 s, elapsed        5.786 s
  Decreasing sparse matrix size:
  | Tolerance:  0.1000E-12
  Hamiltonian matrix
  | Array has   130998 nonzero elements out of   152772 elements
  | Sparsity factor is 0.143
  Overlap matrix
  | Array has   119339 nonzero elements out of   152772 elements
  | Sparsity factor is 0.219
  New size of hamiltonian matrix:      131584

  Updating Kohn-Sham eigenvalues and eigenvectors using ELSI and the (modified) LAPACK eigensolver.

  Obtaining occupation numbers and chemical potential using ELSI.
  | Chemical potential (Fermi level):    -4.03045968 eV
  Writing Kohn-Sham eigenvalues.
  K-point:       1 at    0.000000    0.000000    0.000000 (in units of recip. lattice)

  State    Occupation    Eigenvalue [Ha]    Eigenvalue [eV]
      1       2.00000       -3153.118053       -85800.70771
      2       2.00000        -515.602057       -14030.24582
      3       2.00000        -466.345911       -12689.91789
      4       2.00000        -466.345911       -12689.91789
      5       2.00000        -445.965466       -12135.33777
      6       2.00000        -445.965465       -12135.33773
      7       2.00000        -445.965460       -12135.33761
      8       2.00000        -119.514322        -3252.15017
      9       2.00000         -99.668668        -2712.12244
     10       2.00000         -99.668667        -2712.12243
     11       2.00000         -99.668626        -2712.12130
     12       2.00000         -78.256931        -2129.47943
     13       2.00000         -78.256931        -2129.47943
     14       2.00000         -78.256906        -2129.47876
     15       2.00000         -78.256906        -2129.47876
     16       2.00000         -78.256897        -2129.47852
     17       2.00000         -59.211069        -1611.21518
     18       2.00000         -59.211069        -1611.21518
     19       2.00000         -52.069572        -1416.88514
     20       2.00000         -52.069572        -1416.88514
     21       2.00000         -52.069572        -1416.88513
     22       2.00000         -52.069571        -1416.88513
     23       2.00000         -52.069552        -1416.88461
     24       2.00000         -52.069552        -1416.88461
     25       2.00000         -25.583144         -696.15277
     26       2.00000         -19.118484         -520.24042
     27       2.00000         -19.118484         -520.24042
     28       2.00000         -19.118244         -520.23390
     29       2.00000         -11.290535         -307.23109
     30       2.00000         -11.290535         -307.23109
     31       2.00000         -11.290342         -307.22584
     32       2.00000         -11.290342         -307.22584
     33       2.00000         -11.290246         -307.22321
     34       2.00000          -7.856937         -213.79812
     35       2.00000          -7.856937         -213.79812
     36       2.00000          -5.630988         -153.22698
     37       2.00000          -5.630988         -153.22698
     38       2.00000          -5.630988         -153.22698
     39       2.00000          -5.630988         -153.22698
     40       2.00000          -5.630737         -153.22016
     41       2.00000          -5.630737         -153.22016
     42       2.00000          -3.756099         -102.20867
     43       2.00000          -2.596184          -70.64576
     44       2.00000          -2.596147          -70.64475
     45       2.00000          -2.596008          -70.64097
     46       2.00000          -2.596008          -70.64097
     47       2.00000          -2.595817          -70.63579
     48       2.00000          -2.595817          -70.63578
     49       2.00000          -2.595739          -70.63366
     50       2.00000          -2.078552          -56.56029
     51       2.00000          -2.078552          -56.56029
     52       2.00000          -2.076401          -56.50175
     53       2.00000          -1.962686          -53.40741
     54       2.00000          -1.962686          -53.40741
     55       2.00000          -1.962569          -53.40421
     56       2.00000          -1.962569          -53.40421
     57       2.00000          -1.962396          -53.39951
     58       2.00000          -1.962396          -53.39951
     59       2.00000          -1.962318          -53.39740
     60       2.00000          -1.962318          -53.39740
     61       2.00000          -1.962213          -53.39453
     62       2.00000          -1.962194          -53.39403
     63       2.00000          -0.728371          -19.81999
     64       2.00000          -0.667627          -18.16705
     65       2.00000          -0.387702          -10.54992
     66       2.00000          -0.374597          -10.19331
     67       2.00000          -0.374597          -10.19331
     68       2.00000          -0.275844           -7.50609
     69       2.00000          -0.275843           -7.50608
     70       2.00000          -0.242052           -6.58658
     71       2.00000          -0.231149           -6.28987
     72       2.00000          -0.223347           -6.07759
     73       2.00000          -0.223347           -6.07758
     74       0.00000          -0.096188           -2.61741
     75       0.00000          -0.096188           -2.61741
     76       0.00000          -0.035321           -0.96114
     77       0.00000          -0.005112           -0.13910
     78       0.00000           0.078317            2.13112
     79       0.00000           0.100180            2.72602
     80       0.00000           0.100181            2.72606
     81       0.00000           0.120279            3.27295
     82       0.00000           0.254932            6.93706
     83       0.00000           0.254934            6.93710
     84       0.00000           0.276587            7.52633
     85       0.00000           0.349242            9.50336
     86       0.00000           0.352100            9.58112
     87       0.00000           0.352100            9.58113
     88       0.00000           0.355530            9.67446
     89       0.00000           0.371116           10.09858
     90       0.00000           0.371118           10.09863
     91       0.00000           0.559778           15.23235
     92       0.00000           0.559779           15.23237
     93       0.00000           0.592071           16.11108

  What follows are estimated values for band gap, HOMO, LUMO, etc.
  | They are estimated on a discrete k-point grid and not necessarily exact.
  | For converged numbers, create a DOS and/or band structure plot on a denser k-grid.

  Highest occupied state (VBM) at     -5.60859711 eV (relative to internal zero)
  | Occupation number:      2.00000000
  | K-point:       6 at    0.200000    0.800000    0.000000 (in units of recip. lattice)

  Lowest unoccupied state (CBM) at    -3.98232483 eV (relative to internal zero)
  | Occupation number:      0.00000000
  | K-point:      12 at    0.800000    0.000000    0.000000 (in units of recip. lattice)

  ESTIMATED overall HOMO-LUMO gap:      1.62627228 eV between HOMO at k-point 6 and LUMO at k-point 12
  | This appears to be an indirect band gap.
  | Smallest direct gap :      1.62627232 eV for k_point 6 at    0.800000    0.000000    0.000000 (in units of recip. lattice)
  The gap value is above 0.2 eV. Unless you are using a very sparse k-point grid,
  this system is most likely an insulator or a semiconductor.
  Calculating total energy contributions from superposition of free atom densities.

  Total energy components:
  | Sum of eigenvalues            :      -14841.44610744 Ha     -403856.29656566 eV
  | XC energy correction          :        -536.14110769 Ha      -14589.14182753 eV
  | XC potential correction       :         700.09169156 Ha       19050.46420420 eV
  | Free-atom electrostatic energy:       -9260.56432391 Ha     -251992.77650497 eV
  | Hartree energy correction     :           0.00000000 Ha           0.00000000 eV
  | vdW energy correction         :           0.00000000 Ha           0.00000000 eV
  | Entropy correction            :          -0.00000000 Ha          -0.00000000 eV
  | ---------------------------
  | Total energy                  :      -23938.05984749 Ha     -651387.75069397 eV
  | Total energy, T -> 0          :      -23938.05984749 Ha     -651387.75069397 eV  <-- do not rely on this value for anything but (periodic) metals
  | Electronic free energy        :      -23938.05984749 Ha     -651387.75069397 eV

  Derived energy quantities:
  | Kinetic energy                :       26293.08272932 Ha      715471.18383780 eV
  | Electrostatic energy          :      -49695.00146912 Ha    -1352269.79270424 eV
  | Energy correction for multipole
  | error in Hartree potential    :           0.00000000 Ha           0.00000000 eV
  | Sum of eigenvalues per atom                           :     -134618.76552189 eV
  | Total energy (T->0) per atom                          :     -217129.25023132 eV  <-- do not rely on this value for anything but (periodic) metals
  | Electronic free energy per atom                       :     -217129.25023132 eV
  Initialize hartree_potential_storage
  Max. number of atoms included in rho_multipole:            3

  End scf initialization - timings             :  max(cpu_time)    wall_clock(cpu1)
  | Time for scf. initialization               :        2.154 s           2.188 s
  | Boundary condition initialization          :        0.906 s           0.913 s
  | Relaxation initialization                  :        0.003 s           0.010 s
  | Integration                                :        0.604 s           0.610 s
  | Solution of K.-S. eqns.                    :        0.045 s           0.045 s
  | Grid partitioning                          :        0.433 s           0.432 s
  | Preloading free-atom quantities on grid    :        0.030 s           0.030 s
  | Free-atom superposition energy             :        0.017 s           0.017 s
  | Total energy evaluation                    :        0.000 s           0.000 s

  Partial memory accounting:
  | Current value for overall tracked memory usage:
  |   Minimum:        2.520 MB (on task  0)
  |   Maximum:        2.709 MB (on task  1)
  |   Average:        2.622 MB
  | Peak value for overall tracked memory usage:
  |   Minimum:        9.299 MB (on task 19 after allocating wave)
  |   Maximum:        9.989 MB (on task  8 after allocating wave)
  |   Average:        9.590 MB
  | Largest tracked array allocation so far:
  |   Minimum:        3.675 MB (hamiltonian_shell on task 19)
  |   Maximum:        4.043 MB (hamiltonian_shell on task  8)
  |   Average:        3.813 MB
  Note:  These values currently only include a subset of arrays which are explicitly tracked.
  The "true" memory usage will be greater.
------------------------------------------------------------

------------------------------------------------------------
          Begin self-consistency iteration #    1

  Date     :  20200402, Time     :  184558.164
------------------------------------------------------------
  Evaluating new KS density using the density matrix
  Evaluating density matrix
  Time summed over all CPUs for getting density from density matrix: real work       14.763 s, elapsed       15.209 s
  Integration grid: deviation in total charge (<rho> - N_e) =   2.387424E-12
  Pulay mixing of updated and previous charge densities.
  Renormalizing the density to the exact electron count on the 3D integration grid.
  | Formal number of electrons (from input files) :     146.0000000000
  | Integrated number of electrons on 3D grid     :     145.9998714223
  | Charge integration error                      :      -0.0001285777
  | Normalization factor for density and gradient :       1.0000008807

  Evaluating partitioned Hartree potential by multipole expansion.
  | Original multipole sum: apparent total charge =   0.573589E-13
  | Sum of charges compensated after spline to logarithmic grids =   0.351710E-07
  | Analytical far-field extrapolation by fixed multipoles:
  | Hartree multipole sum: apparent total charge =   0.573742E-13
  Summing up the Hartree potential.
  Time summed over all CPUs for potential: real work        5.110 s, elapsed        5.234 s
  | RMS charge density error from multipole expansion :   0.255149E-03
  | Average real-space part of the electrostatic potential :     -0.00023283 eV

  Integrating Hamiltonian matrix: batch-based integration.
  Time summed over all CPUs for integration: real work        8.138 s, elapsed        8.368 s

  Updating Kohn-Sham eigenvalues and eigenvectors using ELSI and the (modified) LAPACK eigensolver.

  Obtaining occupation numbers and chemical potential using ELSI.
  | Chemical potential (Fermi level):    -4.14497941 eV
  Writing Kohn-Sham eigenvalues.
  K-point:       1 at    0.000000    0.000000    0.000000 (in units of recip. lattice)

  State    Occupation    Eigenvalue [Ha]    Eigenvalue [eV]
      1       2.00000       -3153.136932       -85801.22143
      2       2.00000        -515.620899       -14030.75854
      3       2.00000        -466.344018       -12689.86637
      4       2.00000        -466.344018       -12689.86637
      5       2.00000        -445.984358       -12135.85184
      6       2.00000        -445.984356       -12135.85180
      7       2.00000        -445.984341       -12135.85138
      8       2.00000        -119.531975        -3252.63052
      9       2.00000         -99.686317        -2712.60270
     10       2.00000         -99.686316        -2712.60269
     11       2.00000         -99.686257        -2712.60108
     12       2.00000         -78.274801        -2129.96570
     13       2.00000         -78.274801        -2129.96569
     14       2.00000         -78.274724        -2129.96362
     15       2.00000         -78.274724        -2129.96362
     16       2.00000         -78.274694        -2129.96281
     17       2.00000         -59.209508        -1611.17270
     18       2.00000         -59.209508        -1611.17270
     19       2.00000         -52.067979        -1416.84179
     20       2.00000         -52.067979        -1416.84179
     21       2.00000         -52.067979        -1416.84179
     22       2.00000         -52.067979        -1416.84179
     23       2.00000         -52.067919        -1416.84017
     24       2.00000         -52.067919        -1416.84017
     25       2.00000         -25.599142         -696.58809
     26       2.00000         -19.134344         -520.67198
     27       2.00000         -19.134343         -520.67198
     28       2.00000         -19.134063         -520.66434
     29       2.00000         -11.306371         -307.66200
     30       2.00000         -11.306371         -307.66200
     31       2.00000         -11.306008         -307.65212
     32       2.00000         -11.306008         -307.65212
     33       2.00000         -11.305832         -307.64735
     34       2.00000          -7.855778         -213.76660
     35       2.00000          -7.855778         -213.76660
     36       2.00000          -5.629877         -153.19675
     37       2.00000          -5.629877         -153.19675
     38       2.00000          -5.629877         -153.19675
     39       2.00000          -5.629877         -153.19674
     40       2.00000          -5.629490         -153.18623
     41       2.00000          -5.629490         -153.18622
     42       2.00000          -3.768960         -102.55863
     43       2.00000          -2.611713          -71.06833
     44       2.00000          -2.611571          -71.06447
     45       2.00000          -2.611553          -71.06398
     46       2.00000          -2.611553          -71.06398
     47       2.00000          -2.611203          -71.05444
     48       2.00000          -2.611203          -71.05444
     49       2.00000          -2.610971          -71.04813
     50       2.00000          -2.090266          -56.87904
     51       2.00000          -2.090266          -56.87904
     52       2.00000          -2.088048          -56.81867
     53       2.00000          -1.961598          -53.37779
     54       2.00000          -1.961598          -53.37779
     55       2.00000          -1.961500          -53.37514
     56       2.00000          -1.961500          -53.37514
     57       2.00000          -1.961246          -53.36821
     58       2.00000          -1.961246          -53.36821
     59       2.00000          -1.961160          -53.36589
     60       2.00000          -1.961160          -53.36589
     61       2.00000          -1.961010          -53.36181
     62       2.00000          -1.960993          -53.36135
     63       2.00000          -0.728971          -19.83631
     64       2.00000          -0.667545          -18.16483
     65       2.00000          -0.389653          -10.60301
     66       2.00000          -0.379234          -10.31949
     67       2.00000          -0.379234          -10.31949
     68       2.00000          -0.283417           -7.71218
     69       2.00000          -0.283417           -7.71217
     70       2.00000          -0.241986           -6.58478
     71       2.00000          -0.236979           -6.44853
     72       2.00000          -0.223742           -6.08834
     73       2.00000          -0.223742           -6.08833
     74       0.00000          -0.099814           -2.71607
     75       0.00000          -0.099814           -2.71607
     76       0.00000          -0.036573           -0.99520
     77       0.00000          -0.006506           -0.17704
     78       0.00000           0.078446            2.13462
     79       0.00000           0.097909            2.66424
     80       0.00000           0.097910            2.66427
     81       0.00000           0.118769            3.23186
     82       0.00000           0.252551            6.87226
     83       0.00000           0.252552            6.87230
     84       0.00000           0.275151            7.48723
     85       0.00000           0.347262            9.44949
     86       0.00000           0.351513            9.56515
     87       0.00000           0.351513            9.56516
     88       0.00000           0.353370            9.61569
     89       0.00000           0.369281           10.04864
     90       0.00000           0.369282           10.04869
     91       0.00000           0.558282           15.19162
     92       0.00000           0.558283           15.19165
     93       0.00000           0.590738           16.07479

  What follows are estimated values for band gap, HOMO, LUMO, etc.
  | They are estimated on a discrete k-point grid and not necessarily exact.
  | For converged numbers, create a DOS and/or band structure plot on a denser k-grid.

  Highest occupied state (VBM) at     -5.74300175 eV (relative to internal zero)
  | Occupation number:      2.00000000
  | K-point:       6 at    0.200000    0.800000    0.000000 (in units of recip. lattice)

  Lowest unoccupied state (CBM) at    -4.09688343 eV (relative to internal zero)
  | Occupation number:      0.00000000
  | K-point:      12 at    0.800000    0.000000    0.000000 (in units of recip. lattice)

  ESTIMATED overall HOMO-LUMO gap:      1.64611831 eV between HOMO at k-point 6 and LUMO at k-point 12
  | This appears to be an indirect band gap.
  | Smallest direct gap :      1.64611835 eV for k_point 6 at    0.800000    0.000000    0.000000 (in units of recip. lattice)
  The gap value is above 0.2 eV. Unless you are using a very sparse k-point grid,
  this system is most likely an insulator or a semiconductor.

  Total energy components:
  | Sum of eigenvalues            :      -14842.54536123 Ha     -403886.20878316 eV
  | XC energy correction          :        -536.12244274 Ha      -14588.63392851 eV
  | XC potential correction       :         700.06726535 Ha       19049.79953335 eV
  | Free-atom electrostatic energy:       -9260.56432391 Ha     -251992.77650497 eV
  | Hartree energy correction     :           1.11306689 Ha          30.28809123 eV
  | vdW energy correction         :           0.00000000 Ha           0.00000000 eV
  | Entropy correction            :          -0.00000000 Ha          -0.00000000 eV
  | ---------------------------
  | Total energy                  :      -23938.05179564 Ha     -651387.53159206 eV
  | Total energy, T -> 0          :      -23938.05179564 Ha     -651387.53159206 eV  <-- do not rely on this value for anything but (periodic) metals
  | Electronic free energy        :      -23938.05179564 Ha     -651387.53159206 eV

  Derived energy quantities:
  | Kinetic energy                :       26292.85611540 Ha      715465.01735943 eV
  | Electrostatic energy          :      -49694.78546830 Ha    -1352263.91502298 eV
  | Energy correction for multipole
  | error in Hartree potential    :          -0.00008258 Ha          -0.00224724 eV
  | Sum of eigenvalues per atom                           :     -134628.73626105 eV
  | Total energy (T->0) per atom                          :     -217129.17719735 eV  <-- do not rely on this value for anything but (periodic) metals
  | Electronic free energy per atom                       :     -217129.17719735 eV

  Self-consistency convergence accuracy:
  | Change of charge density      :  0.2850E+00
  | Change of sum of eigenvalues  : -0.2991E+02 eV
  | Change of total energy        :  0.2191E+00 eV

  End self-consistency iteration #     1       :  max(cpu_time)    wall_clock(cpu1)
  | Time for this iteration                    :        1.285 s           1.285 s
  | Charge density update                      :        0.639 s           0.639 s
  | Density mixing & preconditioning           :        0.046 s           0.046 s
  | Hartree multipole update                   :        0.002 s           0.003 s
  | Hartree multipole summation                :        0.234 s           0.234 s
  | Integration                                :        0.354 s           0.354 s
  | Solution of K.-S. eqns.                    :        0.008 s           0.008 s
  | Total energy evaluation                    :        0.000 s           0.001 s

  Partial memory accounting:
  | Current value for overall tracked memory usage:
  |   Minimum:        2.520 MB (on task  0)
  |   Maximum:        2.709 MB (on task  1)
  |   Average:        2.622 MB
  | Peak value for overall tracked memory usage:
  |   Minimum:       11.564 MB (on task 19 after allocating gradient_basis_wave)
  |   Maximum:       12.384 MB (on task  8 after allocating gradient_basis_wave)
  |   Average:       11.904 MB
  | Largest tracked array allocation so far:
  |   Minimum:        3.675 MB (hamiltonian_shell on task 19)
  |   Maximum:        4.043 MB (hamiltonian_shell on task  8)
  |   Average:        3.813 MB
  Note:  These values currently only include a subset of arrays which are explicitly tracked.
  The "true" memory usage will be greater.
------------------------------------------------------------

------------------------------------------------------------
          Begin self-consistency iteration #    2

  Date     :  20200402, Time     :  184559.456
------------------------------------------------------------
  Evaluating new KS density using the density matrix
  Evaluating density matrix
  Time summed over all CPUs for getting density from density matrix: real work       14.710 s, elapsed       15.153 s
  Integration grid: deviation in total charge (<rho> - N_e) =   2.501110E-12
  Pulay mixing of updated and previous charge densities.
  Renormalizing the density to the exact electron count on the 3D integration grid.
  | Formal number of electrons (from input files) :     146.0000000000
  | Integrated number of electrons on 3D grid     :     145.9989053363
  | Charge integration error                      :      -0.0010946637
  | Normalization factor for density and gradient :       1.0000074978

  Evaluating partitioned Hartree potential by multipole expansion.
  | Original multipole sum: apparent total charge =   0.114330E-12
  | Sum of charges compensated after spline to logarithmic grids =   0.387811E-07
  | Analytical far-field extrapolation by fixed multipoles:
  | Hartree multipole sum: apparent total charge =   0.114453E-12
  Summing up the Hartree potential.
  Time summed over all CPUs for potential: real work        5.610 s, elapsed        5.737 s
  | RMS charge density error from multipole expansion :   0.208926E-02
  | Average real-space part of the electrostatic potential :     -0.00161609 eV

  Integrating Hamiltonian matrix: batch-based integration.
  Time summed over all CPUs for integration: real work        8.131 s, elapsed        8.371 s

  Updating Kohn-Sham eigenvalues and eigenvectors using ELSI and the (modified) LAPACK eigensolver.

  Obtaining occupation numbers and chemical potential using ELSI.
  | Chemical potential (Fermi level):    -4.77380453 eV
  What follows are estimated values for band gap, HOMO, LUMO, etc.
  | They are estimated on a discrete k-point grid and not necessarily exact.
  | For converged numbers, create a DOS and/or band structure plot on a denser k-grid.

  Highest occupied state (VBM) at     -6.10238514 eV (relative to internal zero)
  | Occupation number:      2.00000000
  | K-point:       2 at    0.000000    0.200000    0.000000 (in units of recip. lattice)

  Lowest unoccupied state (CBM) at    -4.72569641 eV (relative to internal zero)
  | Occupation number:      0.00000000
  | K-point:      12 at    0.800000    0.000000    0.000000 (in units of recip. lattice)

  ESTIMATED overall HOMO-LUMO gap:      1.37668872 eV between HOMO at k-point 2 and LUMO at k-point 12
  | This appears to be an indirect band gap.
  | Smallest direct gap :      1.37668886 eV for k_point 12 at    0.800000    0.000000    0.000000 (in units of recip. lattice)
  The gap value is above 0.2 eV. Unless you are using a very sparse k-point grid,
  this system is most likely an insulator or a semiconductor.

  Total energy components:
  | Sum of eigenvalues            :      -14849.41878414 Ha     -404073.24413683 eV
  | XC energy correction          :        -536.00389203 Ha      -14585.40799947 eV
  | XC potential correction       :         699.91176674 Ha       19045.56820095 eV
  | Free-atom electrostatic energy:       -9260.56432391 Ha     -251992.77650497 eV
  | Hartree energy correction     :           8.04397749 Ha         218.88776447 eV
  | vdW energy correction         :           0.00000000 Ha           0.00000000 eV
  | Entropy correction            :          -0.00000000 Ha          -0.00000000 eV
  | ---------------------------
  | Total energy                  :      -23938.03125585 Ha     -651386.97267585 eV
  | Total energy, T -> 0          :      -23938.03125585 Ha     -651386.97267585 eV  <-- do not rely on this value for anything but (periodic) metals
  | Electronic free energy        :      -23938.03125585 Ha     -651386.97267585 eV

  Derived energy quantities:
  | Kinetic energy                :       26291.44785984 Ha      715426.69677567 eV
  | Electrostatic energy          :      -49693.47522365 Ha    -1352228.26145205 eV
  | Energy correction for multipole
  | error in Hartree potential    :          -0.00069419 Ha          -0.01888997 eV
  | Sum of eigenvalues per atom                           :     -134691.08137894 eV
  | Total energy (T->0) per atom                          :     -217128.99089195 eV  <-- do not rely on this value for anything but (periodic) metals
  | Electronic free energy per atom                       :     -217128.99089195 eV

  Self-consistency convergence accuracy:
  | Change of charge density      :  0.2526E+00
  | Change of sum of eigenvalues  : -0.1870E+03 eV
  | Change of total energy        :  0.5589E+00 eV

  End self-consistency iteration #     2       :  max(cpu_time)    wall_clock(cpu1)
  | Time for this iteration                    :        1.303 s           1.303 s
  | Charge density update                      :        0.636 s           0.636 s
  | Density mixing & preconditioning           :        0.049 s           0.049 s
  | Hartree multipole update                   :        0.002 s           0.002 s
  | Hartree multipole summation                :        0.254 s           0.254 s
  | Integration                                :        0.353 s           0.354 s
  | Solution of K.-S. eqns.                    :        0.008 s           0.007 s
  | Total energy evaluation                    :        0.000 s           0.000 s

  Partial memory accounting:
  | Current value for overall tracked memory usage:
  |   Minimum:        2.521 MB (on task  0)
  |   Maximum:        2.709 MB (on task  1)
  |   Average:        2.623 MB
  | Peak value for overall tracked memory usage:
  |   Minimum:       11.564 MB (on task 19 after allocating gradient_basis_wave)
  |   Maximum:       12.384 MB (on task  8 after allocating gradient_basis_wave)
  |   Average:       11.904 MB
  | Largest tracked array allocation so far:
  |   Minimum:        3.675 MB (hamiltonian_shell on task 19)
  |   Maximum:        4.043 MB (hamiltonian_shell on task  8)
  |   Average:        3.813 MB
  Note:  These values currently only include a subset of arrays which are explicitly tracked.
  The "true" memory usage will be greater.
------------------------------------------------------------

------------------------------------------------------------
          Begin self-consistency iteration #    3

  Date     :  20200402, Time     :  184600.759
------------------------------------------------------------
  Evaluating new KS density using the density matrix
  Evaluating density matrix
  Time summed over all CPUs for getting density from density matrix: real work       14.674 s, elapsed       15.142 s
  Integration grid: deviation in total charge (<rho> - N_e) =   2.501110E-12
  Pulay mixing of updated and previous charge densities.
  Renormalizing the density to the exact electron count on the 3D integration grid.
  | Formal number of electrons (from input files) :     146.0000000000
  | Integrated number of electrons on 3D grid     :     145.9983052523
  | Charge integration error                      :      -0.0016947477
  | Normalization factor for density and gradient :       1.0000116080

  Evaluating partitioned Hartree potential by multipole expansion.
  | Original multipole sum: apparent total charge =   0.115437E-12
  | Sum of charges compensated after spline to logarithmic grids =   0.921495E-07
  | Analytical far-field extrapolation by fixed multipoles:
  | Hartree multipole sum: apparent total charge =   0.115523E-12
  Summing up the Hartree potential.
  Time summed over all CPUs for potential: real work        5.780 s, elapsed        5.919 s
  | RMS charge density error from multipole expansion :   0.343535E-02
  | Average real-space part of the electrostatic potential :     -0.00077170 eV

[...]
  Evaluating density matrix

  Entering Libmbd.
  Libmbd: VdW method: mbd-nl
  Libmbd: Evaluating kinetic energy density...

  Evaluating density matrix

  Libmbd: Performing Hirshfeld analysis...
  Libmbd: Calculating MBD energy...
  Libmbd: Evaluated energy: -0.19596581018546229E-001

  Total energy components:
  | Sum of eigenvalues            :      -14846.35498845 Ha     -403989.87401430 eV
  | XC energy correction          :        -536.05380731 Ha      -14586.76626340 eV
  | XC potential correction       :         699.97682795 Ha       19047.33860647 eV
  | Free-atom electrostatic energy:       -9260.38382092 Ha     -251987.86476874 eV
  | Hartree energy correction     :           4.78636689 Ha         130.24366976 eV
  | vdW energy correction         :          -0.01959658 Ha          -0.53325010 eV
  | Entropy correction            :          -0.00000000 Ha          -0.00000000 eV
  | ---------------------------
  | Total energy                  :      -23938.04901843 Ha     -651387.45602031 eV
  | Total energy, T -> 0          :      -23938.04901843 Ha     -651387.45602031 eV  <-- do not rely on this value for anything but (periodic) metals
  | Electronic free energy        :      -23938.04901843 Ha     -651387.45602031 eV

  Derived energy quantities:
  | Kinetic energy                :       26292.72986768 Ha      715461.58198411 eV
  | Electrostatic energy          :      -49694.70548222 Ha    -1352261.73849092 eV
  | Energy correction for multipole
  | error in Hartree potential    :          -0.00197023 Ha          -0.05361264 eV
  | Sum of eigenvalues per atom                           :     -134663.29133810 eV
  | Total energy (T->0) per atom                          :     -217129.15200677 eV  <-- do not rely on this value for anything but (periodic) metals
  | Electronic free energy per atom                       :     -217129.15200677 eV

  atomic forces [eV/Ang]:
  -----------------------
  atom #    1
   Hellmann-Feynman              : -0.486658E-02  0.134404E-01  0.564196E+02
   Ionic forces                  :  0.000000E+00  0.000000E+00  0.000000E+00
   Multipole                     : -0.322757E-04  0.133230E-03 -0.285120E-01
   Pulay + GGA                   :  0.403655E-02 -0.956803E-02 -0.563457E+02
   Van der Waals                 : -0.269555E-03  0.147745E-03 -0.504585E-01
   ----------------------------------------------------------------
   Total forces(   1)            : -0.113186E-02  0.415333E-02 -0.499617E-02
  atom #    2
   Hellmann-Feynman              : -0.693029E-02  0.699651E-02 -0.564532E+02
   Ionic forces                  :  0.000000E+00  0.000000E+00  0.000000E+00
   Multipole                     : -0.372972E-04 -0.144340E-04  0.286106E-01
   Pulay + GGA                   :  0.526709E-02 -0.648386E-02  0.563754E+02
   Van der Waals                 :  0.277645E-03 -0.162612E-03  0.504604E-01
   ----------------------------------------------------------------
   Total forces(   2)            : -0.142285E-02  0.335604E-03  0.125631E-02
  atom #    3
   Hellmann-Feynman              :  0.512393E-01 -0.885877E-01  0.860152E-01
   Ionic forces                  :  0.000000E+00  0.000000E+00  0.000000E+00
   Multipole                     : -0.459153E-04  0.797307E-04 -0.395297E-03
   Pulay + GGA                   : -0.486040E-01  0.840064E-01 -0.818687E-01
   Van der Waals                 : -0.809073E-05  0.148667E-04 -0.192258E-05
   ----------------------------------------------------------------
   Total forces(   3)            :  0.258126E-02 -0.448672E-02  0.374929E-02


  Analytical stress tensor components [eV]         xx                  yy                  zz                  xy                  xz                  yz
  -----------------------------------------------------------------------------------------------------------------------------------------------------------
    Nuclear Hellmann-Feynman      :    -0.1942678749E+02   -0.1946235954E+02   -0.2713588512E+02    0.3667796501E-02   -0.3422060662E-02   -0.1714390396E-01
    Multipole Hellmann-Feynman    :    -0.7392047559E+02   -0.7398426608E+02   -0.6353998485E+02    0.6895299138E-02   -0.6318715927E-02   -0.2943924423E-01
    On-site Multipole corrections :    -0.6338574408E+01   -0.6338449409E+01   -0.6338643341E+01    0.1218869044E-07   -0.2538279316E-08   -0.1905253955E-05
    Strain deriv. of the orbitals :     0.9909720923E+02    0.9919092000E+02    0.9698657444E+02   -0.9976962915E-02    0.8637469270E-02    0.4177882087E-01
    vdW correction   :     0.5913599995E+00    0.6009267998E+00    0.1330046105E+00    0.8274571741E-02    0.7211721210E-03   -0.4090271023E-03
  -----------------------------------------------------------------------------------------------------------------------------------------------------------
  Sum of all contributions        :     0.2731751319E-02    0.6771769423E-02    0.1050657329E+00    0.8860716653E-02   -0.3821377358E-03   -0.5215259678E-02

  +-------------------------------------------------------------------+
  |              Analytical stress tensor - Symmetrized               |
  |                  Cartesian components [eV/A**3]                   |
  +-------------------------------------------------------------------+
  |                x                y                z                |
  |                                                                   |
  |  x         0.00000225       0.00000729      -0.00000031           |
  |  y         0.00000729       0.00000557      -0.00000429           |
  |  z        -0.00000031      -0.00000429       0.00008638           |
  |                                                                   |
  |  Pressure:      -0.00003140   [eV/A**3]                           |
  |                                                                   |
  +-------------------------------------------------------------------+

 * Warning: Stress tensor is anisotropic. Be aware that pressure is an isotropic quantity.


  Leaving Libmbd.

  Timings for VdW correction (Tkatchenko-Scheffler 2009 or later):
  | CPU time:        1.042 s, Wall clock time:        1.042 s.
  Removing unitary transformations (pure translations, rotations) from forces on atoms.
  Atomic forces before filtering:
  | Net force on center of mass :   0.265542E-04  0.221312E-05  0.942511E-05 eV/A
  Atomic forces after filtering:
  | Net force on center of mass :  -0.348449E-18  0.000000E+00  0.000000E+00 eV/A

  Energy and forces in a compact form:
  | Total energy uncorrected      :         -0.651387456020313E+06 eV
  | Total energy corrected        :         -0.651387456020313E+06 eV  <-- do not rely on this value for anything but (periodic) metals
  | Electronic free energy        :         -0.651387456020313E+06 eV
  Total atomic forces (unitary forces cleaned) [eV/Ang]:
  |    1         -0.114070694060512E-02          0.415259158873744E-02         -0.499931362016977E-02
  |    2         -0.143170188295502E-02          0.334866195504695E-03          0.125316516775969E-02
  |    3          0.257240882356013E-02         -0.448745778424214E-02          0.374614845241007E-02

  ------------------------------------ 
  Start decomposition of the XC Energy 
  ------------------------------------ 
  X and C from original XC functional choice 
  Hartree-Fock Energy :          0.000000000 Ha              0.000000000 eV
  X Energy            :       -527.906524868 Ha         -14365.067428231 eV
  C Energy            :         -8.147282442 Ha           -221.698835167 eV
  Total XC Energy     :       -536.053807310 Ha         -14586.766263398 eV
  ------------------------------------ 
  LDA X and C from self-consistent density 
  X Energy LDA        :       -504.506123530 Ha         -13728.310109992 eV
  C Energy LDA        :        -14.311799374 Ha           -389.443875660 eV
  ------------------------------------ 
  End decomposition of the XC Energy 
  ------------------------------------ 

------------------------------------------------------------
  Relaxation / MD: End force evaluation.       :  max(cpu_time)    wall_clock(cpu1)
  | Time for this force evaluation             :       35.864 s          36.178 s

------------------------------------------------------------
  Geometry optimization: Attempting to predict improved coordinates.

  +-------------------------------------------------------------------+
  | Generalized derivatives on lattice vectors [eV/A]                 |
  +-------------------------------------------------------------------+
  |lattice_vector       0.00210542       0.00342619      -0.00091036  |
  |lattice_vector       0.00274502       0.00209787      -0.00161567  |
  |lattice_vector      -0.00000378      -0.00005159       0.00103932  |
  +-------------------------------------------------------------------+
  | Forces on lattice vectors cleaned from atomic contributions [eV/A]|
  +-------------------------------------------------------------------+
  |lattice_vector      -0.00210542      -0.00342619       0.00091036  |
  |lattice_vector      -0.00274502      -0.00209787       0.00161567  |
  |lattice_vector       0.00000378       0.00005159      -0.00103932  |
  +-------------------------------------------------------------------+
  Symmetrized total atomic cartesian forces [eV/Ang]:
  |   1    -0.1140706941E-02     0.4152591589E-02    -0.4999313620E-02
  |   2    -0.1431701883E-02     0.3348661955E-03     0.1253165168E-02
  |   3     0.2572408824E-02    -0.4487457784E-02     0.3746148452E-02
  +-------------------------------------------------------------------+
  | Symmetrized forces on lattice vectors cleaned from symmetrized
  | atomic contributions [eV/A]|
  +-------------------------------------------------------------------+
  |lattice_vector      -0.00127486       0.00000000       0.00000000  |
  |lattice_vector       0.00063743      -0.00110406       0.00000000  |
  |lattice_vector       0.00000000       0.00000000      -0.00103932  |
  +-------------------------------------------------------------------+
  Removing unitary transformations (pure translations, rotations) from forces on atoms.
  Atomic forces before filtering:
  | Net force on center of mass :  -0.348449E-18  0.000000E+00  0.696899E-18 eV/A
  Atomic forces after filtering:
  | Net force on center of mass :  -0.348449E-18  0.000000E+00  0.000000E+00 eV/A
  Net remaining forces (excluding translations, rotations) in present geometry:
  || Forces on atoms   || =   0.499931E-02 eV/A.
  || Forces on lattice || =   0.127486E-02 eV/A^3.
  Maximum force component is  0.499931E-02 eV/A.
  Present geometry is converged.

  Symmetry-reduced parameters:
  | atomic   1          0.315170330012715E-03
  | atomic   2          0.666931213335311E+00
  | atomic   3          0.500837413423240E+00
  | atomic   4          0.333740269117271E+00
  | atomic   5          0.333730670029333E+00
  | atomic   6          0.474763228749576E+00
  | atomic   7          0.667027661785084E+00
  | atomic   8          0.421217867710246E-03
  | atomic   9          0.487798014052210E+00
  | lattice  1          0.372728449574931E+01
  | lattice  2          0.101091162718297E+03
  Symmetry-reduced forces:
  | atomic   1         -0.425173929391109E-02
  | atomic   2          0.155301157968751E-01
  | atomic   3         -0.505386426656378E+00
  | atomic   4         -0.533636023087333E-02
  | atomic   5          0.374910243007169E-02
  | atomic   6          0.126683923886897E+00
  | atomic   7          0.958809952478442E-02
  | atomic   8         -0.192792182269468E-01
  | atomic   9          0.378702502769482E+00
  | lattice  1         -0.254971702678230E-02
  | lattice  2         -0.103931669255942E-02
------------------------------------------------------------
  Final atomic structure:
                         x [A]             y [A]             z [A]
  lattice_vector         3.72728450        0.00000000        0.00000000
  lattice_vector        -1.86364225        3.22792306        0.00000000
  lattice_vector         0.00000000        0.00000000      101.09116272

            atom         0.62189579       -1.07512042      -50.46092626  Se
            atom         0.62199035        1.07725693       47.99436681  Se
            atom        -1.24186763        0.00135966       49.31206841  Pt

  Fractional coordinates:
                         L1                L2                L3
       atom_frac         0.00031517       -0.33306879       -0.49916259  Se
       atom_frac         0.33374027        0.33373067        0.47476323  Se
       atom_frac        -0.33297234        0.00042122        0.48779801  Pt
------------------------------------------------------------

------------------------------------------------------------------------------
  Final output of selected total energy values:

  The following output summarizes some interesting total energy values
  at the end of a run (AFTER all relaxation, molecular dynamics, etc.).

  | Total energy of the DFT / Hartree-Fock s.c.f. calculation      :        -651387.456020313 eV
  | Final zero-broadening corrected energy (caution - metals only) :        -651387.456020313 eV
  | For reference only, the value of 1 Hartree used in FHI-aims is :             27.211384500 eV
  | For reference only, the overall average (free atom contribution
  | + realspace contribution) of the electrostatic potential after
  | s.c.f. convergence is                                          :             -0.991962206 eV

  Before relying on these values, please be sure to understand exactly which
  total energy value is referred to by a given number. Different objects may
  all carry the same name 'total energy'. Definitions:

  Total energy of the DFT / Hartree-Fock s.c.f. calculation:
  | Note that this energy does not include ANY quantities calculated after the
  | s.c.f. cycle, in particular not ANY RPA, MP2, etc. many-body perturbation terms.

  Final zero-broadening corrected energy:
  | For metallic systems only, a broadening of the occupation numbers at the Fermi
  | level can be extrapolated back to zero broadening by an electron-gas inspired
  | formula. For all systems that are not real metals, this value can be
  | meaningless and should be avoided.

------------------------------------------------------------------------------
  Methods described in the following list of references were used in this FHI-aims run.
  If you publish the results, please make sure to cite these reference if they apply.
  FHI-aims is an academic code, and for our developers (often, Ph.D. students
  and postdocs), scientific credit in the community is essential.
  Thank you for helping us!

  For any use of FHI-aims, please cite:

    Volker Blum, Ralf Gehrke, Felix Hanke, Paula Havu, Ville Havu,
    Xinguo Ren, Karsten Reuter, and Matthias Scheffler
    'Ab initio molecular simulations with numeric atom-centered orbitals'
    Computer Physics Communications 180, 2175-2196 (2009)
    http://dx.doi.org/10.1016/j.cpc.2009.06.022


  For the analytical stress tensor used in your run, please cite:

    Franz Knuth, Christian Carbogno, Viktor Atalla, Volker Blum, Matthias Scheffler
    'All-electron formalism for total energy strain derivatives and
    stress tensor components for numeric atom-centered orbitals'
    Computer Physics Communications 190, 33-50 (2015).
    http://dx.doi.org/10.1016/j.cpc.2015.01.003


  The provided symmetry information was generated with SPGlib:

    Atsushi Togo, Yusuke Seto, Dimitar Pashov
    SPGlib 1.7.3 obtained from http://spglib.sourceforge.net
    Copyright (C) 2008 Atsushi Togo


  The ELSI infrastructure was used in your run to solve the Kohn-Sham electronic structure.
  Please check out http://elsi-interchange.org to learn more.
  If scalability is important for your project, please acknowledge ELSI by citing:

    V. W-z. Yu, F. Corsetti, A. Garcia, W. P. Huhn, M. Jacquelin, W. Jia,
    B. Lange, L. Lin, J. Lu, W. Mi, A. Seifitokaldani, A. Vazquez-Mayagoitia,
    C. Yang, H. Yang, and V. Blum
    'ELSI: A unified software interface for Kohn-Sham electronic structure solvers'
    Computer Physics Communications 222, 267-285 (2018).
    http://dx.doi.org/10.1016/j.cpc.2017.09.007


  For the real-space grid partitioning and parallelization used in this calculation, please cite:

    Ville Havu, Volker Blum, Paula Havu, and Matthias Scheffler,
    'Efficient O(N) integration for all-electron electronic structure calculation'
    'using numerically tabulated basis functions'
    Journal of Computational Physics 228, 8367-8379 (2009).
    http://dx.doi.org/10.1016/j.jcp.2009.08.008

  Of course, there are many other important community references, e.g., those cited in the
  above references. Our list is limited to references that describe implementations in the
  FHI-aims code. The reason is purely practical (length of this list) - please credit others as well.

 * A warning was issued further up regarding the CPU load.
   Some CPUs do not participate in the eigenvalue solution.
   In corner cases, this may be the correct behavior. Otherwise,
   consider using a scalapack/elpa version of the code for a parallel treatment.

------------------------------------------------------------
          Leaving FHI-aims.
          Date     :  20200402, Time     :  185915.050

          Computational steps:
          | Number of self-consistency cycles          :          271
          | Number of SCF (re)initializations          :           21
          | Number of relaxation steps                 :           20

          Detailed time accounting                     :  max(cpu_time)    wall_clock(cpu1)
          | Total time                                 :      799.752 s         800.193 s
          | Preparation time                           :        0.648 s           0.705 s
          | Boundary condition initalization           :       18.774 s          18.773 s
          | Grid partitioning                          :        9.383 s           9.379 s
          | Preloading free-atom quantities on grid    :        2.335 s           2.306 s
          | Free-atom superposition energy             :        0.370 s           0.371 s
          | Total time for integrations                :      107.112 s         107.082 s
          | Total time for solution of K.-S. equations :        2.138 s           2.194 s
          | Total time for EV reorthonormalization     :        0.042 s           0.004 s
          | Total time for density & force components  :      497.081 s         497.097 s
          | Total time for mixing & preconditioning    :       17.100 s          17.133 s
          | Total time for Hartree multipole update    :        0.688 s           0.704 s
          | Total time for Hartree multipole sum       :      121.299 s         121.321 s
          | Total time for total energy evaluation     :        0.058 s           0.065 s
          | Total time for scaled ZORA corrections     :        0.000 s           0.000 s
          | Total time for vdW correction              :       20.809 s          20.812 s

          Partial memory accounting:
          | Residual value for overall tracked memory usage across tasks:     0.000000 MB (should be 0.000000 MB)
          | Peak values for overall tracked memory usage:
          |   Minimum:       28.503 MB (on task 23 after allocating d_wave)
          |   Maximum:       30.087 MB (on task  7 after allocating d_wave)
          |   Average:       29.159 MB
          | Largest tracked array allocation:
          |   Minimum:        6.538 MB (hessian_basis_wave on task  2)
          |   Maximum:        6.823 MB (hessian_basis_wave on task  7)
          |   Average:        6.655 MB
          Note:  These values currently only include a subset of arrays which are explicitly tracked.
          The "true" memory usage will be greater.

          Have a nice day.
------------------------------------------------------------
