------------------------------------------------------------
          Invoking FHI-aims ...

          When using FHI-aims, please cite the following reference:

          Volker Blum, Ralf Gehrke, Felix Hanke, Paula Havu,
          Ville Havu, Xinguo Ren, Karsten Reuter, and Matthias Scheffler,
          'Ab Initio Molecular Simulations with Numeric Atom-Centered Orbitals',
          Computer Physics Communications 180, 2175-2196 (2009)

          For any questions about FHI-aims, please visit the aimsclub website
          with its forums and wiki. Contributions to both the forums and the
          wiki are warmly encouraged - they are for you, and everyone is welcome there.

------------------------------------------------------------



  Date     :  20200403, Time     :  101014.486
  Time zero on CPU 1             :   0.985450000000000E-01  s.
  Internal wall clock time zero  :           355140614.486  s.

  FHI-aims created a unique identifier for this run for later identification
  aims_uuid : 9C07995D-5342-4876-A8C8-227BFEC7AB29

  Build configuration of the current instance of FHI-aims
  -------------------------------------------------------
  FHI-aims version      : 200112
  Commit number         : 23daeca3f
  CMake host system     : Linux-3.10.0-693.21.1.el7.x86_64
  CMake version         : 3.13.3
  Fortran compiler      : /sw/installed/impi/2018.4.274-iccifort-2019.1.144-GCC-8.2.0-2.31.1/bin64/mpiifort (Intel) version 19.0.0.20181018
  Fortran compiler flags: -O3 -ip -fp-model precise
  C compiler            : /sw/installed/impi/2018.4.274-iccifort-2019.1.144-GCC-8.2.0-2.31.1/bin64/mpiicc (Intel) version 19.0.0.20181018
  C compiler flags      : -O3 -ip -fp-model precise
  Architecture          :
  Using MPI
  Using Scalapack
  Using C files
  Using LibXC
  Using SPGlib
  Using i-PI
  Using RLSY
  Linking against: /sw/installed/imkl/2019.1.144-iimpi-2019a/mkl/lib/intel64/libmkl_intel_lp64.so
                   /sw/installed/imkl/2019.1.144-iimpi-2019a/mkl/lib/intel64/libmkl_sequential.so
                   /sw/installed/imkl/2019.1.144-iimpi-2019a/mkl/lib/intel64/libmkl_core.so
                   /sw/installed/imkl/2019.1.144-iimpi-2019a/mkl/lib/intel64/libmkl_blacs_intelmpi_lp64.so
                   /sw/installed/imkl/2019.1.144-iimpi-2019a/mkl/lib/intel64/libmkl_scalapack_lp64.so

  Using       24 parallel tasks.
  Task        0 on host taurusi6255.taurus.hrsk.tu-dresden.de reporting.
  Task        1 on host taurusi6255.taurus.hrsk.tu-dresden.de reporting.
  Task        2 on host taurusi6255.taurus.hrsk.tu-dresden.de reporting.
  Task        3 on host taurusi6255.taurus.hrsk.tu-dresden.de reporting.
  Task        4 on host taurusi6255.taurus.hrsk.tu-dresden.de reporting.
  Task        5 on host taurusi6255.taurus.hrsk.tu-dresden.de reporting.
  Task        6 on host taurusi6255.taurus.hrsk.tu-dresden.de reporting.
  Task        7 on host taurusi6255.taurus.hrsk.tu-dresden.de reporting.
  Task        8 on host taurusi6255.taurus.hrsk.tu-dresden.de reporting.
  Task        9 on host taurusi6255.taurus.hrsk.tu-dresden.de reporting.
  Task       10 on host taurusi6255.taurus.hrsk.tu-dresden.de reporting.
  Task       11 on host taurusi6255.taurus.hrsk.tu-dresden.de reporting.
  Task       12 on host taurusi6255.taurus.hrsk.tu-dresden.de reporting.
  Task       13 on host taurusi6255.taurus.hrsk.tu-dresden.de reporting.
  Task       14 on host taurusi6255.taurus.hrsk.tu-dresden.de reporting.
  Task       15 on host taurusi6255.taurus.hrsk.tu-dresden.de reporting.
  Task       16 on host taurusi6255.taurus.hrsk.tu-dresden.de reporting.
  Task       17 on host taurusi6255.taurus.hrsk.tu-dresden.de reporting.
  Task       18 on host taurusi6255.taurus.hrsk.tu-dresden.de reporting.
  Task       19 on host taurusi6255.taurus.hrsk.tu-dresden.de reporting.
  Task       20 on host taurusi6255.taurus.hrsk.tu-dresden.de reporting.
  Task       21 on host taurusi6255.taurus.hrsk.tu-dresden.de reporting.
  Task       22 on host taurusi6255.taurus.hrsk.tu-dresden.de reporting.
  Task       23 on host taurusi6255.taurus.hrsk.tu-dresden.de reporting.

  Performing system and environment tests:
  | Environment variable OMP_NUM_THREADS correctly set to 1.
  | Maximum stacksize for task 0: unlimited
  | Maximum stacksize for task 1: unlimited
  | Maximum stacksize for task 2: unlimited
  | Maximum stacksize for task 3: unlimited
  | Maximum stacksize for task 4: unlimited
  | Maximum stacksize for task 5: unlimited
  | Maximum stacksize for task 6: unlimited
  | Maximum stacksize for task 7: unlimited
  | Maximum stacksize for task 8: unlimited
  | Maximum stacksize for task 9: unlimited
  | Maximum stacksize for task 10: unlimited
  | Maximum stacksize for task 11: unlimited
  | Maximum stacksize for task 12: unlimited
  | Maximum stacksize for task 13: unlimited
  | Maximum stacksize for task 14: unlimited
  | Maximum stacksize for task 15: unlimited
  | Maximum stacksize for task 16: unlimited
  | Maximum stacksize for task 17: unlimited
  | Maximum stacksize for task 18: unlimited
  | Maximum stacksize for task 19: unlimited
  | Maximum stacksize for task 20: unlimited
  | Maximum stacksize for task 21: unlimited
  | Maximum stacksize for task 22: unlimited
  | Maximum stacksize for task 23: unlimited
  | Current stacksize for task 0: unlimited
  | Current stacksize for task 1: unlimited
  | Current stacksize for task 2: unlimited
  | Current stacksize for task 3: unlimited
  | Current stacksize for task 4: unlimited
  | Current stacksize for task 5: unlimited
  | Current stacksize for task 6: unlimited
  | Current stacksize for task 7: unlimited
  | Current stacksize for task 8: unlimited
  | Current stacksize for task 9: unlimited
  | Current stacksize for task 10: unlimited
  | Current stacksize for task 11: unlimited
  | Current stacksize for task 12: unlimited
  | Current stacksize for task 13: unlimited
  | Current stacksize for task 14: unlimited
  | Current stacksize for task 15: unlimited
  | Current stacksize for task 16: unlimited
  | Current stacksize for task 17: unlimited
  | Current stacksize for task 18: unlimited
  | Current stacksize for task 19: unlimited
  | Current stacksize for task 20: unlimited
  | Current stacksize for task 21: unlimited
  | Current stacksize for task 22: unlimited
  | Current stacksize for task 23: unlimited
  | Checking for scalapack...
  | Testing pdtran()...
  | All pdtran() tests passed.

  Obtaining array dimensions for all initial allocations:
  
  -----------------------------------------------------------------------
  Parsing control.in (first pass over file, find array dimensions only).
  The contents of control.in will be repeated verbatim below
  unless switched off by setting 'verbatim_writeout .false.' .
  in the first line of control.in .
  -----------------------------------------------------------------------
  
  #===============================================================================
  # FHI-aims file: ./control.in
  # Created using the Atomic Simulation Environment (ASE)
  # Thu Apr  2 11:31:19 2020
  #===============================================================================
  xc                                 pbe
  # include_spin_orbit
  # vdw_correction_hirshfeld
  many_body_dispersion_nl 	 beta=0.81
  spin                               none
  k_grid 	 	 28 28 1
  relativistic                       atomic_zora scalar
  ### SCF settings
  adjust_scf 	 always 	 3
  # frozen_core_scf 	 .true.
  # charge_mix_param  0.05
  # occupation_type 	 gaussian 	 0.01
  # sc_accuracy_eev   1E-3 	 	 # sum of eigenvalues convergence
  # sc_accuracy_etot  1E-6 	 	 # total energy convergence
  # sc_accuracy_rho   1E-3 	 	 # electron density convergence
  # elsi_restart 	 read_and_write 	 1000
  ### geometry optimisation section
  relax_geometry 	 bfgs 	 1E-2
  relax_unit_cell 	 full
  #===============================================================================
  
  ################################################################################
  #
  #  FHI-aims code project
  # Volker Blum, Fritz Haber Institute Berlin, 2009
  #
  #  Suggested "tight" defaults for Se atom (to be pasted into control.in file)
  #
  ################################################################################
    species        Se
  #     global species definitions
      nucleus             34
      mass                78.96
  #
      l_hartree           6
  #
      cut_pot             4.0          2.0  1.0
      basis_dep_cutoff    1e-4
  #
      radial_base         55 7.0
      radial_multiplier   2
      angular_grids       specified
        division   0.0830  110
        division   0.1357  194
        division   0.7377  302
        division   0.8610  434
  #      division   0.9640  590
  #      division   1.0773  770
  #      division   2.5539  974
  #      outer_grid  974
        outer_grid  434
  ################################################################################
  #
  #  Definition of "minimal" basis
  #
  ################################################################################
  #     valence basis states
      valence      4  s   2.
      valence      4  p   4.
      valence      3  d  10.
  #     ion occupancy
      ion_occ      4  s   1.
      ion_occ      4  p   3.
      ion_occ      3  d  10.
  ################################################################################
  #
  #  Suggested additional basis functions. For production calculations,
  #  uncomment them one after another (the most important basis functions are
  #  listed first).
  #
  #  Constructed for dimers: 1.85 A, 2.15 A, 2.50 A, 3.00 A, 4.00 A
  #
  ################################################################################
  #  "First tier" - improvements: -336.21 meV to -36.85 meV
       hydro 3 d 4.3
       hydro 2 p 1.6
       hydro 4 f 7.2
       ionic 4 s auto
  #  "Second tier" - improvements: -14.39 meV to -1.49 meV
  #     hydro 5 g 10.4
  #     hydro 4 p 4.5
  #     hydro 4 d 6.2
  #     hydro 4 f 11.2
  #     hydro 1 s 0.65
  #     hydro 6 h 15.2
  #  "Third tier" - improvements: -0.46 meV and below
  #     hydro 5 g 14.4
  #     ionic 4 d auto
  #     hydro 4 f 22.4
  #     hydro 5 f 7.4
  #     hydro 5 p 8
  #     hydro 5 s 9.4
  #  "Fourth tier" - improvements: -0.12 meV and below
  #     hydro 5 d 11.6
  #     hydro 6 h 18
  #     hydro 4 p 4
  #     hydro 5 f 16
  #     hydro 4 s 3.9
  #
  #
  ################################################################################
  #
  #  FHI-aims code project
  # Volker Blum, Fritz Haber Institute Berlin, 2009
  #
  #  Suggested "tight" defaults for W atom (to be pasted into control.in file)
  #
  ################################################################################
    species          W
  #     global species definitions
      nucleus        74
      mass           183.84
  #
      l_hartree      6
  #
      cut_pot        4.0  2.0  1.0
      basis_dep_cutoff    1e-4
  #
      radial_base    71  7.0
      radial_multiplier  2
      angular_grids specified
        division   0.2901   50
        division   0.6986  110
        division   1.0528  194
        division   1.2659  302
        division   1.5223  434
  #      division   1.8111  590
  #      division   2.0105  770
  #      division   2.0413  974
  #      division   2.8804 1202
  #      outer_grid  974
        outer_grid  434
  ################################################################################
  #
  #  Definition of "minimal" basis
  #
  ################################################################################
  #     valence basis states
      valence      6  s   2.
      valence      5  p   6.
      valence      5  d   4.
      valence      4  f  14.
  #     ion occupancy
      ion_occ      6  s   1.
      ion_occ      5  p   6.
      ion_occ      5  d   3.
      ion_occ      4  f  14.
  ################################################################################
  #
  #  Suggested additional basis functions. For production calculations,
  #  uncomment them one after another (the most important basis functions are
  #  listed first).
  #
  #  Constructed for dimers: 1.775, 1.99, 2.50, 3.25, 4.50 AA
  #
  ################################################################################
  #
  #  "First tier" - improvements: -603.77 meV to -28.99 meV
       hydro 4 f 7.8
       hydro 4 d 5.8
       ionic 6 p auto
       hydro 5 g 12.4
       ionic 6 s auto
  #  "Second tier" - improvements: -28.30 meV to -1.31 meV
  #     hydro 6 h 16.8
  #     ionic 5 d auto
  #     hydro 4 f 8.6
  #     hydro 5 g 16.8
  #     hydro 5 d 8.4
  #     hydro 3 p 3.3
  #     hydro 1 s 0.55
  #  "Third tier" - max. impr. -1.79 meV, min. impr. -0.26 meV
  #     hydro 5 f 10.8
  #     hydro 5 g 34.4
  #     hydro 6 h 20.8
  #     hydro 5 g 12.8
  #     hydro 2 p 1.6
  #     hydro 4 s 4.7
  #     hydro 6 d 18.4
  #  "Fourth tier" -0.46 max. impr. - meV, min. impr. -0.09 meV
  #     hydro 6 h 21.6
  #     hydro 5 f 22.4
  #     hydro 4 f 4
  #     hydro 5 p 9.6
  #     hydro 6 d 17.2
  #     hydro 3 p 5.2
  #     hydro 5 g 4.7
  #     hydro 6 s 7.6
  
  -----------------------------------------------------------------------
  Completed first pass over input file control.in .
  -----------------------------------------------------------------------
  
  
  -----------------------------------------------------------------------
  Parsing geometry.in (first pass over file, find array dimensions only).
  The contents of geometry.in will be repeated verbatim below
  unless switched off by setting 'verbatim_writeout .false.' .
  in the first line of geometry.in .
  -----------------------------------------------------------------------
  
  #=======================================================
  # FHI-aims file: geometry.in
  # Created using the Atomic Simulation Environment (ASE)
  # Thu Apr  2 11:31:19 2020
  #=======================================================
  lattice_vector 3.2799999999999998 0.0000000000000000 0.0000000000000000
  lattice_vector -1.6399999999999999 2.8405633199999998 0.0000000000000000
  lattice_vector 0.0000000000000000 0.0000000000000000 103.4566499999999962
  atom_frac 0.0000000000000000 0.0000000000000000 0.5000000000000001 Se
  atom_frac 0.3333333333333330 0.6666666666666667 0.4832942106669799 W
  atom_frac 0.0000000000000000 0.0000000000000000 0.4665884213339598 Se
  symmetry_n_params 11 2 9
  symmetry_params a1 c3 x0 x1 x2 x3 x4 x5 x6 x7 x8
  symmetry_lv a1 , 0 , 0
  symmetry_lv -a1/2 , sqrt(3.0)*a1/2 , 0
  symmetry_lv 0 , 0 , c3
  symmetry_frac x0 , x1 , x2
  symmetry_frac x3 , x4 , x5
  symmetry_frac x6 , x7 , x8
  
  -----------------------------------------------------------------------
  Completed first pass over input file geometry.in .
  -----------------------------------------------------------------------
  

  Basic array size parameters:
  | Number of species                 :        2
  | Number of atoms                   :        3
  | Number of lattice vectors         :        3
  | Max. basis fn. angular momentum   :        4
  | Max. atomic/ionic basis occupied n:        6
  | Max. number of basis fn. types    :        3
  | Max. radial fns per species/type  :       14
  | Max. logarithmic grid size        :     1483
  | Max. radial integration grid size :      143
  | Max. angular integration grid size:      434
  | Max. angular grid division number :        8
  | Radial grid for Hartree potential :     1483
  | Number of spin channels           :        1

------------------------------------------------------------
          Reading file control.in.
------------------------------------------------------------
  XC: Using PBE gradient-corrected functionals.
  Using libMBD for calculating MBD and TS energies
  Spin treatment: No spin polarisation.
  Found k-point grid:        28        28         1
  Scalar relativistic treatment of kinetic energy: on-site free-atom approximation to ZORA.
  S.C.F. convergence parameters will be adjusted in iteration number     3 of each new s.c.f. cycle.
  Geometry relaxation: Modified BFGS - TRM (trust radius method) for lattice optimization.
  Convergence accuracy for geometry relaxation: Maximum force <   0.100000E-01 eV/A.
 
  Reading configuration options for species Se                  .
  | Found nuclear charge :  34.0000
  | Found atomic mass :    78.9600000000000      amu
  | Found l_max for Hartree potential  :   6
  | Found cutoff potl. onset [A], width [A], scale factor :    4.00000    2.00000    1.00000
  | Threshold for basis-dependent cutoff potential is   0.100000E-03
  | Found data for basic radial integration grid :    55 points, outermost radius =    7.000 A
  | Found multiplier for basic radial grid :   2
  | Found angular grid specification: user-specified.
  | Specified grid contains     5 separate shells.
  | Check grid settings after all constraints further below.
  | Found free-atom valence shell :  4 s   2.000
  | Found free-atom valence shell :  4 p   4.000
  | Found free-atom valence shell :  3 d  10.000
  | Found free-ion valence shell :  4 s   1.000
  | Found free-ion valence shell :  4 p   3.000
  | Found free-ion valence shell :  3 d  10.000
  | Found hydrogenic basis function :  3 d   4.300
  | Found hydrogenic basis function :  2 p   1.600
  | Found hydrogenic basis function :  4 f   7.200
  | Found ionic basis function :  4 s , default cutoff radius.
  Species Se                  : Missing cutoff potential type.
  Defaulting to exp(1/x)/(1-x)^2 type cutoff potential.
  Species Se: No 'logarithmic' tag. Using default grid for free atom:
  | Default logarithmic grid data [bohr] : 0.1000E-03 0.1000E+03 0.1012E+01
  | Will include ionic basis functions of  2.0-fold positive Se                   ion.
  Species Se: On-site basis accuracy parameter (for Gram-Schmidt orthonormalisation) not specified.
  Using default value basis_acc =  0.1000000E-03.
  Species Se                  : Using default innermost maximum threshold i_radial=  2 for radial functions.
  Species Se                  : Default cutoff onset for free atom density etc. : 0.40000000E+01 AA.
  Species Se                  : Basic radial grid will be enhanced according to radial_multiplier =   2, to contain   111 grid points.
 
  Reading configuration options for species W                   .
  | Found nuclear charge :  74.0000
  | Found atomic mass :    183.840000000000      amu
  | Found l_max for Hartree potential  :   6
  | Found cutoff potl. onset [A], width [A], scale factor :    4.00000    2.00000    1.00000
  | Threshold for basis-dependent cutoff potential is   0.100000E-03
  | Found data for basic radial integration grid :    71 points, outermost radius =    7.000 A
  | Found multiplier for basic radial grid :   2
  | Found angular grid specification: user-specified.
  | Specified grid contains     6 separate shells.
  | Check grid settings after all constraints further below.
  | Found free-atom valence shell :  6 s   2.000
  | Found free-atom valence shell :  5 p   6.000
  | Found free-atom valence shell :  5 d   4.000
  | Found free-atom valence shell :  4 f  14.000
  | Found free-ion valence shell :  6 s   1.000
  | Found free-ion valence shell :  5 p   6.000
  | Found free-ion valence shell :  5 d   3.000
  | Found free-ion valence shell :  4 f  14.000
  | Found hydrogenic basis function :  4 f   7.800
  | Found hydrogenic basis function :  4 d   5.800
  | Found ionic basis function :  6 p , default cutoff radius.
  | Found hydrogenic basis function :  5 g  12.400
  | Found ionic basis function :  6 s , default cutoff radius.
  Species W                   : Missing cutoff potential type.
  Defaulting to exp(1/x)/(1-x)^2 type cutoff potential.
  Species W : No 'logarithmic' tag. Using default grid for free atom:
  | Default logarithmic grid data [bohr] : 0.1000E-03 0.1000E+03 0.1012E+01
  | Will include ionic basis functions of  2.0-fold positive W                    ion.
  Species W : On-site basis accuracy parameter (for Gram-Schmidt orthonormalisation) not specified.
  Using default value basis_acc =  0.1000000E-03.
  Species W                   : Using default innermost maximum threshold i_radial=  2 for radial functions.
  Species W                   : Default cutoff onset for free atom density etc. : 0.40000000E+01 AA.
  Species W                   : Basic radial grid will be enhanced according to radial_multiplier =   2, to contain   143 grid points.
 
  Finished reading input file 'control.in'. Consistency checks are next.
 
  MPI_IN_PLACE appears to work with this MPI implementation.
  | Keeping use_mpi_in_place .true. (see manual).
  Target number of points in a grid batch is not set. Defaulting to  100
  Method for grid partitioning is not set. Defaulting to parallel hash+maxmin partitioning.
  Batch size limit is not set. Defaulting to    200
  By default, will store active basis functions for each batch.
  If in need of memory, prune_basis_once .false. can be used to disable this option.
  communication_type for Hartree potential was not specified.
  Defaulting to calc_hartree .
  Defaulting to Pulay charge density mixer.
  Pulay mixer: Number of relevant iterations not set.
  Defaulting to    8 iterations.
  Pulay mixer: Number of initial linear mixing iterations not set.
  Defaulting to    0 iterations.
  Work space size for distributed Hartree potential not set.
  Defaulting to   0.200000E+03 MB.
  Mixing parameter for charge density mixing has not been set.
  Using default: charge_mix_param =     0.0500.
  The mixing parameter will be adjusted in iteration number     3 of each s.c.f. cycle (i.e., each geometry step).
  Algorithm-dependent basis array size parameters:
  | n_max_pulay                         :        8
  Maximum number of self-consistency iterations not provided.
  Presetting  1000 iterations.
  Presetting      1001 iterations before the initial mixing cycle
  is restarted anyway using the sc_init_iter criterion / keyword.
  Presetting a factor      1.000 between actual scf density residual
  and density convergence criterion sc_accuracy_rho below which sc_init_iter
  takes no effect.
 * No s.c.f. convergence criteria (sc_accuracy_*) were provided in control.in.
 * The run will proceed with a reasonable default guess, but please check whether.
 * the s.c.f. cycles seem to take too much or too little time.
  No maximum number of relaxation steps, defaulting to     1000
  Default initial Hessian is Lindh matrix (thres = 15.00) plus  0.200000E+01 eV/A^2 times unity.
  No maximum energy tolerance for TRM/BFGS moves, defaulting to   0.100000E-02
  Maximum energy tolerance by which TRM/BFGS trajectory may increase over multiple steps:   0.300000E-02
  No harmonic length scale. Defaulting to   0.250000E-01 A.
  No trust radius initializer. Defaulting to   0.200000E+00 A.
  Unit cell relaxation: Unit cell will be relaxed fully.
  Unit cell relaxation: Analytical stress will be used.
  Analytical stress will be computed.
  Analytical stress calculation: Only the upper triangle is calculated.
                                 Final output is symmetrized.
  Analytical stress calculation: scf convergence accuracy of stress not set.
                                 Analytical stress self-consistency will not be checked explicitly.
                                 Be sure to set other criteria like sc_accuracy_rho tight enough.
 * Notice: The s.c.f. convergence criterion sc_accuracy_rho was not provided.
 * We used to stop in this case, and ask the user to provide reasonable
 * scf convergence criteria. However, this led some users to employ criteria
 * that led to extremely long run times, e.g., for simple relaxation.
 * We now preset a default value for sc_accuracy_rho if it is not set.
 * You may still wish to check if this setting is too tight or too loose for your needs.
 * Based on n_atoms, FHI-aims chose sc_accuracy_rho =  0.100000E-05 .
  Force calculation: scf convergence accuracy of forces not set.
  Defaulting to 'sc_accuracy_forces not_checked'.
  Handling of forces: Unphysical translation and rotation will be removed from forces.
  No accuracy limit for integral partition fn. given. Defaulting to  0.1000E-14.
  No threshold value for u(r) in integrations given. Defaulting to  0.1000E-05.
  No occupation type (smearing scheme) given. Defaulting to Gaussian broadening, width =  0.1000E-01 eV.
  The width will be adjusted in iteration number     3 of each s.c.f. cycle (i.e., each geometry step).
  S.C.F. convergence parameters will be adjusted in iteration number     3 of the first full s.c.f. cycle only.
  No accuracy for occupation numbers given. Defaulting to  0.1000E-12.
  No threshold value for occupation numbers given. Defaulting to  0.0000E+00.
  No accuracy for fermi level given. Defaulting to  0.1000E-19.
  Maximum # of iterations to find E_F not set. Defaulting to  200.
  Preferred method for the eigenvalue solver ('KS_method') not specified in 'control.in'.
  Defaulting to serial version, LAPACK (via ELSI), since more k-points than CPUs available.
  Will not use alltoall communication since running on < 1024 CPUs.
  Threshold for basis singularities not set.
  Default threshold for basis singularities:  0.1000E-04
  partition_type (choice of integration weights) for integrals was not specified.
  | Using a version of the partition function of Stratmann and coworkers ('stratmann_sparse').
  | At each grid point, the set of atoms used to build the partition table is smoothly restricted to
  | only those atoms whose free-atom density would be non-zero at that grid point.
  Partitioning for Hartree potential was not defined. Using partition_type for integrals.
  | Adjusted default value of keyword multip_moments_threshold to:       0.10000000E-11
  | This value may affect high angular momentum components of the Hartree potential in periodic systems.
  Angular momentum expansion for Kerker preconditioner not set explicitly.
  | Using default value of   0
  No explicit requirement for turning off preconditioner.
  | By default, it will be turned off when the charge convergence reaches
  | sc_accuracy_rho  =   0.100000E-05
  No special mixing parameter while Kerker preconditioner is on.
  Using default: charge_mix_param =     0.0500.
  No q(lm)/r^(l+1) cutoff set for long-range Hartree potential.
  | Using default value of  0.100000E-09 .
  | Verify using the multipole_threshold keyword.
  Defaulting to new monopole extrapolation.
  Density update method: automatic selection selected.
  Using density matrix based charge density update.
  Using density matrix based charge density update.
  Using packed matrix style: index .
  Geometry relaxation: A file "geometry.in.next_step" is written out by default after each step.
  | This file contains the geometry of the current relaxation step as well as
  | the current Hessian matrix needed to restart the relaxation algorithm.
  | If you do not want part or all of this information, use the keywords
  | "write_restart_geometry" or "hessian_to_restart_geometry" to switch the output off.
  Defaulting to use time-reversal symmetry for k-point grid.
  Charge integration errors on the 3D integration grid will be compensated
  by explicit normalization and distribution of residual charges.
  Use the "compensate_multipole_errors" flag to change this behaviour.
------------------------------------------------------------


------------------------------------------------------------
          Reading geometry description geometry.in.
------------------------------------------------------------
  Input structure read successfully.
  The structure contains        3 atoms,  and a total of        142.000 electrons.

  Input geometry:
  | Unit cell:
  |        3.28000000        0.00000000        0.00000000
  |       -1.64000000        2.84056332        0.00000000
  |        0.00000000        0.00000000      103.45665000
  | Atomic structure:
  |       Atom                x [A]            y [A]            z [A]
  |    1: Species Se            0.00000000        0.00000000       51.72832500
  |    2: Species W            -0.00000000        1.89370888       50.00000000
  |    3: Species Se            0.00000000        0.00000000       48.27167500

  Lattice parameters for 3D lattice (in Angstroms) :     3.280000    3.280000  103.456650
  Angle(s) between unit vectors (in degrees)       :    90.000000   90.000000  120.000000

  | The smallest distance between any two atoms is         2.56383319 AA.
  | The first atom of this pair is atom number                      1 .
  | The second atom of this pair is atom number                     2 .
  | Wigner-Seitz cell of the first atom image           0    -1     1 .
  | (The Wigner-Seitz cell of the second atom is 0 0 0  by definition.)

  Symmetry information by spglib:
  | Precision set to  0.1E-04
  | Number of Operations  : 12
  | Space group           : 187
  | International         : P-6m2
  | Schoenflies           : D3h^1

  Quantities derived from the lattice vectors:
  | Reciprocal lattice vector 1:  1.915605  1.105975  0.000000
  | Reciprocal lattice vector 2: -0.000000  2.211950  0.000000
  | Reciprocal lattice vector 3:  0.000000  0.000000  0.060733
  | Unit cell volume                               :   0.963911E+03  A^3

  Range separation radius for Ewald summation (hartree_convergence_parameter):      5.00000000 bohr.

  Fractional coordinates:
                         L1                L2                L3
       atom_frac         0.00000000        0.00000000        0.50000000  Se
       atom_frac         0.33333333        0.66666667        0.48329421  W
       atom_frac         0.00000000        0.00000000        0.46658842  Se

  Number of empty states per atom not set in control.in - providing a guess from actual geometry.
  | Total number of empty states used during s.c.f. cycle:       20
  If you use a very high smearing, use empty_states (per atom!) in control.in to increase this value.

  Structure-dependent array size parameters: 
  | Maximum number of distinct radial functions  :       31
  | Maximum number of basis functions            :      133
  | Number of Kohn-Sham states (occupied + empty):       91
------------------------------------------------------------

------------------------------------------------------------
          Preparing all fixed parts of the calculation.
------------------------------------------------------------
  Determining machine precision:
    2.225073858507201E-308
  Setting up grids for atomic and cluster calculations.

  Creating wave function, potential, and density for free atoms.

  Species: Se

  List of occupied orbitals and eigenvalues:
    n    l              occ      energy [Ha]    energy [eV]
    1    0           2.0000      -466.337810    -12689.6975
    2    0           2.0000       -59.202598     -1610.9847
    3    0           2.0000        -7.847116      -213.5309
    4    0           2.0000        -0.634372       -17.2621
    2    1           6.0000       -52.061107     -1416.6548
    3    1           6.0000        -5.620941      -152.9536
    4    1           4.0000        -0.238469        -6.4891
    3    2          10.0000        -1.951949       -53.1152


  Species: W

  List of occupied orbitals and eigenvalues:
    n    l              occ      energy [Ha]    energy [eV]
    1    0           2.0000     -2764.899999    -75236.7570
    2    0           2.0000      -447.822848    -12185.8797
    3    0           2.0000      -101.923634     -2773.4832
    4    0           2.0000       -20.945301      -569.9506
    5    0           2.0000        -2.899582       -78.9016
    6    0           2.0000        -0.207066        -5.6345
    2    1           6.0000      -391.021390    -10640.2334
    3    1           6.0000       -85.417793     -2324.3364
    4    1           6.0000       -15.562838      -423.4864
    5    1           6.0000        -1.582233       -43.0547
    3    2          10.0000       -66.517936     -1810.0451
    4    2          10.0000        -8.758436      -238.3292
    5    2           4.0000        -0.161873        -4.4048
    4    3          14.0000        -1.221948       -33.2509

  Creating fixed part of basis set: Ionic, confined, hydrogenic.
 
  Se                   ion:

  List of free ionic orbitals and eigenvalues:
    n    l      energy [Ha]    energy [eV]
    1    0      -467.261007    -12714.8189
    2    0       -60.104893     -1635.5374
    3    0        -8.743714      -237.9286
    4    0        -1.414053       -38.4783
    2    1       -52.964156     -1441.2280
    3    1        -6.516916      -177.3343
    4    1        -0.961869       -26.1738
    3    2        -2.844511       -77.4031


  List of ionic basis orbitals and eigenvalues:
    n    l      energy [Ha]    energy [eV]    outer radius [A]
    4    0        -1.414046       -38.4782       4.083166

 
  Se                   hydrogenic:
 
  List of hydrogenic basis orbitals: 
    n    l      effective z      eigenvalue [eV]  inner max. [A]     outer max. [A]     outer radius [A]   
    3    2         4.300000       -27.9518           1.103845           1.103845           5.278265
    2    1         1.600000        -8.6828           1.326010           1.326010           5.475439
    4    3         7.200000       -44.0822           1.173422           1.173422           4.965294
 
 
  W                    ion:

  List of free ionic orbitals and eigenvalues:
    n    l      energy [Ha]    energy [eV]
    1    0     -2765.664016    -75257.5469
    2    0      -448.543169    -12205.4806
    3    0      -102.635476     -2792.8534
    4    0       -21.655379      -589.2728
    5    0        -3.604872       -98.0936
    6    0        -0.752243       -20.4696
    2    1      -391.740682    -10659.8063
    3    1       -86.129333     -2343.6984
    4    1       -16.272893      -442.8080
    5    1        -2.280103       -62.0448
    3    2       -67.229405     -1829.4052
    4    2        -9.468448      -257.6496
    5    2        -0.806537       -21.9470
    4    3        -1.931058       -52.5468


  List of ionic basis orbitals and eigenvalues:
    n    l      energy [Ha]    energy [eV]    outer radius [A]
    6    1        -0.508246       -13.8301       5.434360
    6    0        -0.752227       -20.4691       5.368330

 
  W                    hydrogenic:
 
  List of hydrogenic basis orbitals: 
    n    l      effective z      eigenvalue [eV]  inner max. [A]     outer max. [A]     outer radius [A]   
    4    3         7.800000       -51.7355           1.082252           1.082252           4.692859
    4    2         5.800000       -28.5979           0.616741           1.946131           5.434360
    5    4        12.400000       -83.6803           1.069102           1.069102           4.307971
 

  Adding cutoff potential to free-atom effective potential.
  Creating atomic-like basis functions for current effective potential.

  Species Se                  :

  List of atomic basis orbitals and eigenvalues:
    n    l      energy [Ha]    energy [eV]    outer radius [A]
    1    0      -466.337810    -12689.6975       0.309561
    2    0       -59.202598     -1610.9847       0.885812
    3    0        -7.847116      -213.5309       2.355489
    4    0        -0.634372       -17.2621       5.214131
    2    1       -52.061107     -1416.6548       0.907737
    3    1        -5.620941      -152.9536       2.694529
    4    1        -0.238469        -6.4891       5.408909
    3    2        -1.951949       -53.1152       4.083166


  Species W                   :

  List of atomic basis orbitals and eigenvalues:
    n    l      energy [Ha]    energy [eV]    outer radius [A]
    1    0     -2764.899999    -75236.7570       0.130566
    2    0      -447.822848    -12185.8797       0.342973
    3    0      -101.923634     -2773.4832       0.722975
    4    0       -20.945301      -569.9506       1.542753
    5    0        -2.899582       -78.9016       3.859132
    6    0        -0.207066        -5.6345       5.434360
    2    1      -391.021390    -10640.2334       0.355785
    3    1       -85.417793     -2324.3364       0.768545
    4    1       -15.562838      -423.4864       1.722184
    5    1        -1.582233       -43.0547       4.750581
    3    2       -66.517936     -1810.0451       0.827037
    4    2        -8.758436      -238.3292       2.172477
    5    2        -0.161873        -4.4048       5.368330
    4    3        -1.221948       -33.2509       4.579510

  Assembling full basis from fixed parts.
  | Species Se :   atomic orbital   1 s accepted.
  | Species Se :   atomic orbital   2 s accepted.
  | Species Se :   atomic orbital   3 s accepted.
  | Species Se :    ionic orbital   4 s accepted.
  | Species Se :   atomic orbital   4 s accepted.
  | Species Se :   atomic orbital   2 p accepted.
  | Species Se :   atomic orbital   3 p accepted.
  | Species Se :   atomic orbital   4 p accepted.
  | Species Se :    hydro orbital   2 p accepted.
  | Species Se :   atomic orbital   3 d accepted.
  | Species Se :    hydro orbital   3 d accepted.
  | Species Se :    hydro orbital   4 f accepted.
  | Species W :   atomic orbital   1 s accepted.
  | Species W :   atomic orbital   2 s accepted.
  | Species W :   atomic orbital   3 s accepted.
  | Species W :   atomic orbital   4 s accepted.
  | Species W :   atomic orbital   5 s accepted.
  | Species W :    ionic orbital   6 s accepted.
  | Species W :   atomic orbital   6 s accepted.
  | Species W :   atomic orbital   2 p accepted.
  | Species W :   atomic orbital   3 p accepted.
  | Species W :   atomic orbital   4 p accepted.
  | Species W :   atomic orbital   5 p accepted.
  | Species W :    ionic orbital   6 p accepted.
  | Species W :   atomic orbital   3 d accepted.
  | Species W :   atomic orbital   4 d accepted.
  | Species W :   atomic orbital   5 d accepted.
  | Species W :    hydro orbital   4 d accepted.
  | Species W :   atomic orbital   4 f accepted.
  | Species W :    hydro orbital   4 f accepted.
  | Species W :    hydro orbital   5 g accepted.
 
  Basis size parameters after reduction:
  | Total number of radial functions:       31
  | Total number of basis functions :      133
 
  Per-task memory consumption for arrays in subroutine allocate_ext:
  |          11.774048MB.
  Testing on-site integration grid accuracy.
  |  Species  Function  <phi|h_atom|phi> (log., in eV)  <phi|h_atom|phi> (rad., in eV)
           1        1             -12689.6974611609             -12689.6967666984
           1        2              -1610.9846578580              -1610.9846472470
           1        3               -213.5308789869               -213.5308777267
           1        4                -17.0464428502                -17.0464426496
           1        5                  6.7356859379                  6.7356842047
           1        6              -1416.6548010133              -1416.6548002108
           1        7               -152.9535734377               -152.9535727493
           1        8                 -6.4896265677                 -6.4896303794
           1        9                  5.2703037283                  5.2701679583
           1       10                -53.1152220964                -53.1152219035
           1       11                  7.6186674138                  7.6186665630
           1       12                 23.1072799052                 23.1072803137
           2       13             -75236.7569897399             -75236.7398021817
           2       14             -12185.8796968880             -12185.8793671389
           2       15              -2773.4831911435              -2773.4831624928
           2       16               -569.9506420417               -569.9506363235
           2       17                -78.9016401754                -78.9016385970
           2       18                 -5.1691854985                 -5.1691848359
           2       19                  4.5636857937                  4.5638143911
           2       20             -10640.2333851158             -10640.2333803363
           2       21              -2324.3364165327              -2324.3364072919
           2       22               -423.4863614587               -423.4863574859
           2       23                -43.0547390743                -43.0547381502
           2       24                 -0.2794590887                 -0.2794514858
           2       25              -1810.0451240061              -1810.0451202456
           2       26               -238.3291788481               -238.3291766729
           2       27                 -4.4054312548                 -4.4054293965
           2       28                  8.2928303327                  8.2928369209
           2       29                -33.2508975445                -33.2508971534
           2       30                 21.3563540729                 21.3563541106
           2       31                 49.8060668070                 49.8060668105

  Preparing densities etc. for the partition functions (integrals / Hartree potential).

  Preparations completed.
  max(cpu_time)          :      0.712 s.
  Wall clock time (cpu1) :      0.776 s.
------------------------------------------------------------

------------------------------------------------------------
          Begin self-consistency loop: Initialization.

          Date     :  20200403, Time     :  101016.119
------------------------------------------------------------

  Initializing index lists of integration centers etc. from given atomic structure:
  Mapping all atomic coordinates to central unit cell.

  Initializing the k-points
  Using symmetry for reducing the k-points
  | k-points reduced from:      784 to      394
  | Number of k-points                             :       394
  The eigenvectors in the calculations are COMPLEX.
  | K-points in task   0:        16
  | K-points in task   1:        17
  | K-points in task   2:        17
  | K-points in task   3:        17
  | K-points in task   4:        17
  | K-points in task   5:        17
  | K-points in task   6:        17
  | K-points in task   7:        17
  | K-points in task   8:        17
  | K-points in task   9:        17
  | K-points in task  10:        17
  | K-points in task  11:        16
  | K-points in task  12:        16
  | K-points in task  13:        16
  | K-points in task  14:        16
  | K-points in task  15:        16
  | K-points in task  16:        16
  | K-points in task  17:        16
  | K-points in task  18:        16
  | K-points in task  19:        16
  | K-points in task  20:        16
  | K-points in task  21:        16
  | K-points in task  22:        16
  | K-points in task  23:        16
  | Number of basis functions in the Hamiltonian integrals :      3306
  | Number of basis functions in a single unit cell        :       133
  | Number of centers in hartree potential         :       339
  | Number of centers in hartree multipole         :       177
  | Number of centers in electron density summation:       132
  | Number of centers in basis integrals           :       216
  | Number of centers in integrals                 :       131
  | Number of centers in hamiltonian               :       132
  | Consuming        449 KiB for k_phase.
  | Number of super-cells (origin) [n_cells]                     :         675
  | Number of super-cells (after PM_index) [n_cells]             :          73
  | Number of super-cells in hamiltonian [n_cells_in_hamiltonian]:          52
  | Size of matrix packed + index [n_hamiltonian_matrix_size] :      202843

  Initializing relaxation algorithms.
  | Estimated reciprocal-space cutoff momentum G_max:         1.90186217 bohr^-1 .
  | Reciprocal lattice points for long-range Hartree potential:     676
  Partitioning the integration grid into batches with parallel hashing+maxmin method.
  | Number of batches:     1321
  | Maximal batch size:     155
  | Minimal batch size:      68
  | Average batch size:      75.423
  | Standard deviation of batch sizes:      14.471

  Integration load balanced across    24 MPI tasks.
  Work distribution over tasks is as follows:
  Task     0 has       4152 integration points.
  Task     1 has       4140 integration points.
  Task     2 has       4142 integration points.
  Task     3 has       4132 integration points.
  Task     4 has       4138 integration points.
  Task     5 has       4138 integration points.
  Task     6 has       4155 integration points.
  Task     7 has       4154 integration points.
  Task     8 has       4155 integration points.
  Task     9 has       4131 integration points.
  Task    10 has       4140 integration points.
  Task    11 has       4169 integration points.
  Task    12 has       4203 integration points.
  Task    13 has       4141 integration points.
  Task    14 has       4152 integration points.
  Task    15 has       4140 integration points.
  Task    16 has       4200 integration points.
  Task    17 has       4152 integration points.
  Task    18 has       4134 integration points.
  Task    19 has       4200 integration points.
  Task    20 has       4166 integration points.
  Task    21 has       4131 integration points.
  Task    22 has       4131 integration points.
  Task    23 has       4138 integration points.
  Initializing partition tables, free-atom densities, potentials, etc. across the integration grid (initialize_grid_storage).
  | initialize_grid_storage: Actual outermost partition radius vs. multipole_radius_free
  | (-- VB: in principle, multipole_radius_free should be larger, hence this output)
  | Species        1: Confinement radius =              6.000000000000000 AA, multipole_radius_free =              6.037996416842453 AA.
  | Species        1: outer_partition_radius set to              6.037996416842453 AA .
  | Species        2: Confinement radius =              6.000000000000000 AA, multipole_radius_free =              6.066407844853155 AA.
  | Species        2: outer_partition_radius set to              6.066407844853155 AA .
  | The sparse table of interatomic distances needs        278.21 kbyte instead of       373.25 kbyte of memory.
  | Net number of integration points:    99634
  | of which are non-zero points    :    85038
  | Numerical average free-atom electrostatic potential    :     -1.32147320 eV
  Renormalizing the initial density to the exact electron count on the 3D integration grid.
  | Initial density: Formal number of electrons (from input files) :     142.0000000000
  | Integrated number of electrons on 3D grid     :     141.9999144118
  | Charge integration error                      :      -0.0000855882
  | Normalization factor for density and gradient :       1.0000006027
  Renormalizing the free-atom superposition density to the exact electron count on the 3D integration grid.
  | Formal number of electrons (from input files) :     142.0000000000
  | Integrated number of electrons on 3D grid     :     141.9999144118
  | Charge integration error                      :      -0.0000855882
  | Normalization factor for density and gradient :       1.0000006027
  Obtaining max. number of non-zero basis functions in each batch (get_n_compute_maxes).
  | Maximal number of non-zero basis functions:      937 in task     0
  | Maximal number of non-zero basis functions:      987 in task     1
  | Maximal number of non-zero basis functions:      985 in task     2
  | Maximal number of non-zero basis functions:      967 in task     3
  | Maximal number of non-zero basis functions:      888 in task     4
  | Maximal number of non-zero basis functions:      931 in task     5
  | Maximal number of non-zero basis functions:      922 in task     6
  | Maximal number of non-zero basis functions:      939 in task     7
  | Maximal number of non-zero basis functions:     1001 in task     8
  | Maximal number of non-zero basis functions:      924 in task     9
  | Maximal number of non-zero basis functions:      978 in task    10
  | Maximal number of non-zero basis functions:      930 in task    11
  | Maximal number of non-zero basis functions:      949 in task    12
  | Maximal number of non-zero basis functions:      905 in task    13
  | Maximal number of non-zero basis functions:      939 in task    14
  | Maximal number of non-zero basis functions:      981 in task    15
  | Maximal number of non-zero basis functions:      903 in task    16
  | Maximal number of non-zero basis functions:      906 in task    17
  | Maximal number of non-zero basis functions:      911 in task    18
  | Maximal number of non-zero basis functions:      916 in task    19
  | Maximal number of non-zero basis functions:      985 in task    20
  | Maximal number of non-zero basis functions:      945 in task    21
  | Maximal number of non-zero basis functions:      925 in task    22
  | Maximal number of non-zero basis functions:      946 in task    23
  Allocating        2.955 MB for KS_eigenvector_complex
  Integrating Hamiltonian matrix: batch-based integration.
  Time summed over all CPUs for integration: real work       13.181 s, elapsed       13.429 s
  Integrating overlap matrix.
  Time summed over all CPUs for integration: real work        9.224 s, elapsed        9.421 s
  Decreasing sparse matrix size:
  | Tolerance:  0.1000E-12
  Hamiltonian matrix
  | Array has   159117 nonzero elements out of   202843 elements
  | Sparsity factor is 0.216
  Overlap matrix
  | Array has   146243 nonzero elements out of   202843 elements
  | Sparsity factor is 0.279
  New size of hamiltonian matrix:      160379

  Updating Kohn-Sham eigenvalues and eigenvectors using ELSI and the (modified) LAPACK eigensolver.
  Singularity check in k-point 24, task 0 (analysis for other k-points/tasks may follow below):
  Overlap matrix is not singular
  | Lowest and highest eigenvalues :  0.1100E-02,  0.6203E+01
  Finished singularity check of overlap matrix
  | Time :     0.021 s
  Starting LAPACK eigensolver
  Finished Cholesky decomposition
  | Time :     0.018 s
  Finished transformation to standard eigenproblem
  | Time :     0.001 s
  Finished solving standard eigenproblem
  | Time :     0.004 s
  Finished back-transformation of eigenvectors
  | Time :     0.000 s

  Obtaining occupation numbers and chemical potential using ELSI.
  | Chemical potential (Fermi level):    -4.59957053 eV
  Writing Kohn-Sham eigenvalues.
  K-point:       1 at    0.000000    0.000000    0.000000 (in units of recip. lattice)

  State    Occupation    Eigenvalue [Ha]    Eigenvalue [eV]
      1       2.00000       -2764.916660       -75237.21035
      2       2.00000        -466.356607       -12690.20894
      3       2.00000        -466.356607       -12690.20894
      4       2.00000        -447.837840       -12186.28767
      5       2.00000        -391.036154       -10640.63514
      6       2.00000        -391.036153       -10640.63511
      7       2.00000        -391.036152       -10640.63509
      8       2.00000        -101.938724        -2773.89382
      9       2.00000         -85.432850        -2324.74613
     10       2.00000         -85.432837        -2324.74579
     11       2.00000         -85.432837        -2324.74578
     12       2.00000         -66.532933        -1810.45322
     13       2.00000         -66.532931        -1810.45318
     14       2.00000         -66.532931        -1810.45317
     15       2.00000         -66.532923        -1810.45296
     16       2.00000         -66.532923        -1810.45296
     17       2.00000         -59.221922        -1611.51049
     18       2.00000         -59.221922        -1611.51049
     19       2.00000         -52.080421        -1417.18035
     20       2.00000         -52.080421        -1417.18035
     21       2.00000         -52.080363        -1417.17878
     22       2.00000         -52.080363        -1417.17878
     23       2.00000         -52.080363        -1417.17877
     24       2.00000         -52.080363        -1417.17877
     25       2.00000         -20.961648         -570.39546
     26       2.00000         -15.579469         -423.93893
     27       2.00000         -15.579391         -423.93679
     28       2.00000         -15.579391         -423.93679
     29       2.00000          -8.775411         -238.79107
     30       2.00000          -8.775411         -238.79107
     31       2.00000          -8.775375         -238.79010
     32       2.00000          -8.775313         -238.78843
     33       2.00000          -8.775313         -238.78843
     34       2.00000          -7.869061         -214.12805
     35       2.00000          -7.869061         -214.12805
     36       2.00000          -5.643607         -153.57036
     37       2.00000          -5.643607         -153.57035
     38       2.00000          -5.642901         -153.55115
     39       2.00000          -5.642901         -153.55115
     40       2.00000          -5.642901         -153.55115
     41       2.00000          -5.642901         -153.55115
     42       2.00000          -2.926521          -79.63470
     43       2.00000          -1.975546          -53.75733
     44       2.00000          -1.975546          -53.75733
     45       2.00000          -1.975508          -53.75630
     46       2.00000          -1.975508          -53.75630
     47       2.00000          -1.975508          -53.75630
     48       2.00000          -1.975453          -53.75480
     49       2.00000          -1.974677          -53.73370
     50       2.00000          -1.974677          -53.73370
     51       2.00000          -1.974671          -53.73353
     52       2.00000          -1.974671          -53.73353
     53       2.00000          -1.619420          -44.06665
     54       2.00000          -1.612180          -43.86966
     55       2.00000          -1.612180          -43.86965
     56       2.00000          -1.240682          -33.76066
     57       2.00000          -1.240682          -33.76066
     58       2.00000          -1.240572          -33.75769
     59       2.00000          -1.240555          -33.75723
     60       2.00000          -1.240478          -33.75511
     61       2.00000          -1.240478          -33.75511
     62       2.00000          -1.240074          -33.74414
     63       2.00000          -0.775304          -21.09709
     64       2.00000          -0.730208          -19.86996
     65       2.00000          -0.459190          -12.49521
     66       2.00000          -0.312719           -8.50952
     67       2.00000          -0.309577           -8.42401
     68       2.00000          -0.309576           -8.42398
     69       2.00000          -0.267398           -7.27627
     70       2.00000          -0.267398           -7.27626
     71       2.00000          -0.244381           -6.64995
     72       0.00000          -0.117437           -3.19562
     73       0.00000          -0.117436           -3.19559
     74       0.00000          -0.114178           -3.10693
     75       0.00000          -0.114177           -3.10692
     76       0.00000          -0.053311           -1.45067
     77       0.00000           0.062850            1.71025
     78       0.00000           0.068782            1.87164
     79       0.00000           0.089562            2.43710
     80       0.00000           0.182623            4.96943
     81       0.00000           0.182626            4.96951
     82       0.00000           0.212782            5.79009
     83       0.00000           0.271290            7.38218
     84       0.00000           0.271292            7.38222
     85       0.00000           0.370755           10.08877
     86       0.00000           0.379563           10.32843
     87       0.00000           0.416901           11.34445
     88       0.00000           0.416902           11.34449
     89       0.00000           0.422115           11.48634
     90       0.00000           0.422118           11.48641
     91       0.00000           0.461004           12.54456

  What follows are estimated values for band gap, HOMO, LUMO, etc.
  | They are estimated on a discrete k-point grid and not necessarily exact.
  | For converged numbers, create a DOS and/or band structure plot on a denser k-grid.

  Highest occupied state (VBM) at     -6.19440073 eV (relative to internal zero)
  | Occupation number:      2.00000000
  | K-point:     192 at    0.321429    0.357143    0.000000 (in units of recip. lattice)

  Lowest unoccupied state (CBM) at    -4.55785337 eV (relative to internal zero)
  | Occupation number:      0.00000000
  | K-point:     114 at    0.178571    0.642857    0.000000 (in units of recip. lattice)

  ESTIMATED overall HOMO-LUMO gap:      1.63654736 eV between HOMO at k-point 192 and LUMO at k-point 114
  | This appears to be an indirect band gap.
  | Smallest direct gap :      1.77263966 eV for k_point 192 at    0.178571    0.642857    0.000000 (in units of recip. lattice)
  The gap value is above 0.2 eV. Unless you are using a very sparse k-point grid,
  this system is most likely an insulator or a semiconductor.
  Calculating total energy contributions from superposition of free atom densities.

  Total energy components:
  | Sum of eigenvalues            :      -13283.19568717 Ha     -361454.14523239 eV
  | XC energy correction          :        -503.87085813 Ha      -13711.02365899 eV
  | XC potential correction       :         657.80838233 Ha       17899.87681877 eV
  | Free-atom electrostatic energy:       -8398.26766151 Ha     -228528.49047133 eV
  | Hartree energy correction     :           0.00000000 Ha           0.00000000 eV
  | vdW energy correction         :           0.00000000 Ha           0.00000000 eV
  | Entropy correction            :          -0.00000000 Ha          -0.00000000 eV
  | ---------------------------
  | Total energy                  :      -21527.52582449 Ha     -585793.78254394 eV
  | Total energy, T -> 0          :      -21527.52582449 Ha     -585793.78254394 eV  <-- do not rely on this value for anything but (periodic) metals
  | Electronic free energy        :      -21527.52582449 Ha     -585793.78254394 eV

  Derived energy quantities:
  | Kinetic energy                :       23361.76108954 Ha      635705.86360472 eV
  | Electrostatic energy          :      -44385.41605590 Ha    -1207788.62248967 eV
  | Energy correction for multipole
  | error in Hartree potential    :           0.00000000 Ha           0.00000000 eV
  | Sum of eigenvalues per atom                           :     -120484.71507746 eV
  | Total energy (T->0) per atom                          :     -195264.59418131 eV  <-- do not rely on this value for anything but (periodic) metals
  | Electronic free energy per atom                       :     -195264.59418131 eV
  Initialize hartree_potential_storage
  Max. number of atoms included in rho_multipole:            3

  End scf initialization - timings             :  max(cpu_time)    wall_clock(cpu1)
  | Time for scf. initialization               :        3.004 s           3.089 s
  | Boundary condition initialization          :        1.151 s           1.153 s
  | Relaxation initialization                  :        0.004 s           0.025 s
  | Integration                                :        0.960 s           0.969 s
  | Solution of K.-S. eqns.                    :        0.203 s           0.230 s
  | Grid partitioning                          :        0.472 s           0.472 s
  | Preloading free-atom quantities on grid    :        0.030 s           0.030 s
  | Free-atom superposition energy             :        0.019 s           0.019 s
  | Total energy evaluation                    :        0.001 s           0.001 s

  Partial memory accounting:
  | Current value for overall tracked memory usage:
  |   Minimum:        6.024 MB (on task  0)
  |   Maximum:        6.209 MB (on task  1)
  |   Average:        6.101 MB
  | Peak value for overall tracked memory usage:
  |   Minimum:       16.206 MB (on task  4 after allocating wave)
  |   Maximum:       18.238 MB (on task  8 after allocating wave)
  |   Average:       17.046 MB
  | Largest tracked array allocation so far:
  |   Minimum:        6.016 MB (hamiltonian_shell on task  4)
  |   Maximum:        7.645 MB (hamiltonian_shell on task  8)
  |   Average:        6.773 MB
  Note:  These values currently only include a subset of arrays which are explicitly tracked.
  The "true" memory usage will be greater.
------------------------------------------------------------

------------------------------------------------------------
          Begin self-consistency iteration #    1

  Date     :  20200403, Time     :  101019.211
------------------------------------------------------------
  Evaluating new KS density using the density matrix
  Evaluating density matrix
  Time summed over all CPUs for getting density from density matrix: real work       23.677 s, elapsed       24.499 s
  Integration grid: deviation in total charge (<rho> - N_e) =   2.779643E-11
  Pulay mixing of updated and previous charge densities.
  Renormalizing the density to the exact electron count on the 3D integration grid.
  | Formal number of electrons (from input files) :     142.0000000000
  | Integrated number of electrons on 3D grid     :     141.9997996852
  | Charge integration error                      :      -0.0002003148
  | Normalization factor for density and gradient :       1.0000014107

  Evaluating partitioned Hartree potential by multipole expansion.
  | Original multipole sum: apparent total charge =   0.129557E-13
  | Sum of charges compensated after spline to logarithmic grids =   0.321454E-07
  | Analytical far-field extrapolation by fixed multipoles:
  | Hartree multipole sum: apparent total charge =   0.129632E-13
  Summing up the Hartree potential.
  Time summed over all CPUs for potential: real work        6.290 s, elapsed        6.423 s
  | RMS charge density error from multipole expansion :   0.217407E-03
  | Average real-space part of the electrostatic potential :      0.00027749 eV

  Integrating Hamiltonian matrix: batch-based integration.
  Time summed over all CPUs for integration: real work       12.701 s, elapsed       12.989 s

  Updating Kohn-Sham eigenvalues and eigenvectors using ELSI and the (modified) LAPACK eigensolver.
  Starting LAPACK eigensolver
  Finished Cholesky decomposition
  | Time :     0.000 s
  Finished transformation to standard eigenproblem
  | Time :     0.001 s
  Finished solving standard eigenproblem
  | Time :     0.004 s
  Finished back-transformation of eigenvectors
  | Time :     0.000 s

  Obtaining occupation numbers and chemical potential using ELSI.
  | Chemical potential (Fermi level):    -4.45064747 eV
  Writing Kohn-Sham eigenvalues.
  K-point:       1 at    0.000000    0.000000    0.000000 (in units of recip. lattice)

  State    Occupation    Eigenvalue [Ha]    Eigenvalue [eV]
      1       2.00000       -2764.912290       -75237.09144
      2       2.00000        -466.351604       -12690.07281
      3       2.00000        -466.351604       -12690.07281
      4       2.00000        -447.833650       -12186.17365
      5       2.00000        -391.031953       -10640.52083
      6       2.00000        -391.031952       -10640.52079
      7       2.00000        -391.031951       -10640.52076
      8       2.00000        -101.934415        -2773.77655
      9       2.00000         -85.428548        -2324.62907
     10       2.00000         -85.428518        -2324.62824
     11       2.00000         -85.428517        -2324.62823
     12       2.00000         -66.528662        -1810.33701
     13       2.00000         -66.528662        -1810.33700
     14       2.00000         -66.528659        -1810.33692
     15       2.00000         -66.528639        -1810.33638
     16       2.00000         -66.528639        -1810.33638
     17       2.00000         -59.217087        -1611.37892
     18       2.00000         -59.217087        -1611.37892
     19       2.00000         -52.075547        -1417.04772
     20       2.00000         -52.075547        -1417.04772
     21       2.00000         -52.075519        -1417.04697
     22       2.00000         -52.075519        -1417.04697
     23       2.00000         -52.075519        -1417.04696
     24       2.00000         -52.075519        -1417.04696
     25       2.00000         -20.956836         -570.26452
     26       2.00000         -15.574618         -423.80692
     27       2.00000         -15.574507         -423.80389
     28       2.00000         -15.574507         -423.80389
     29       2.00000          -8.770491         -238.65720
     30       2.00000          -8.770491         -238.65720
     31       2.00000          -8.770438         -238.65577
     32       2.00000          -8.770357         -238.65355
     33       2.00000          -8.770357         -238.65355
     34       2.00000          -7.864265         -213.99753
     35       2.00000          -7.864265         -213.99753
     36       2.00000          -5.638714         -153.43721
     37       2.00000          -5.638714         -153.43720
     38       2.00000          -5.638148         -153.42181
     39       2.00000          -5.638148         -153.42181
     40       2.00000          -5.638148         -153.42181
     41       2.00000          -5.638148         -153.42181
     42       2.00000          -2.920543          -79.47202
     43       2.00000          -1.970699          -53.62543
     44       2.00000          -1.970699          -53.62543
     45       2.00000          -1.970661          -53.62441
     46       2.00000          -1.970661          -53.62441
     47       2.00000          -1.970626          -53.62346
     48       2.00000          -1.970571          -53.62198
     49       2.00000          -1.969934          -53.60464
     50       2.00000          -1.969934          -53.60464
     51       2.00000          -1.969929          -53.60448
     52       2.00000          -1.969929          -53.60448
     53       2.00000          -1.613202          -43.89746
     54       2.00000          -1.605829          -43.69683
     55       2.00000          -1.605829          -43.69683
     56       2.00000          -1.235578          -33.62180
     57       2.00000          -1.235578          -33.62180
     58       2.00000          -1.235469          -33.61882
     59       2.00000          -1.235412          -33.61726
     60       2.00000          -1.235378          -33.61635
     61       2.00000          -1.235378          -33.61635
     62       2.00000          -1.234934          -33.60427
     63       2.00000          -0.769530          -20.93997
     64       2.00000          -0.725165          -19.73275
     65       2.00000          -0.453529          -12.34116
     66       2.00000          -0.308464           -8.39374
     67       2.00000          -0.302667           -8.23598
     68       2.00000          -0.302666           -8.23595
     69       2.00000          -0.261168           -7.10674
     70       2.00000          -0.261168           -7.10673
     71       2.00000          -0.239015           -6.50394
     72       0.00000          -0.111944           -3.04616
     73       0.00000          -0.111943           -3.04613
     74       0.00000          -0.108969           -2.96521
     75       0.00000          -0.108969           -2.96520
     76       0.00000          -0.047614           -1.29565
     77       0.00000           0.064434            1.75334
     78       0.00000           0.072438            1.97114
     79       0.00000           0.094793            2.57945
     80       0.00000           0.187915            5.11343
     81       0.00000           0.187918            5.11351
     82       0.00000           0.216691            5.89646
     83       0.00000           0.275998            7.51029
     84       0.00000           0.276000            7.51033
     85       0.00000           0.376137           10.23521
     86       0.00000           0.384903           10.47373
     87       0.00000           0.421336           11.46514
     88       0.00000           0.421338           11.46518
     89       0.00000           0.426880           11.61599
     90       0.00000           0.426882           11.61605
     91       0.00000           0.465406           12.66434

  What follows are estimated values for band gap, HOMO, LUMO, etc.
  | They are estimated on a discrete k-point grid and not necessarily exact.
  | For converged numbers, create a DOS and/or band structure plot on a denser k-grid.

  Highest occupied state (VBM) at     -6.01713714 eV (relative to internal zero)
  | Occupation number:      2.00000000
  | K-point:     192 at    0.321429    0.357143    0.000000 (in units of recip. lattice)

  Lowest unoccupied state (CBM) at    -4.40893357 eV (relative to internal zero)
  | Occupation number:      0.00000000
  | K-point:     114 at    0.178571    0.642857    0.000000 (in units of recip. lattice)

  ESTIMATED overall HOMO-LUMO gap:      1.60820356 eV between HOMO at k-point 192 and LUMO at k-point 114
  | This appears to be an indirect band gap.
  | Smallest direct gap :      1.78810196 eV for k_point 192 at    0.178571    0.642857    0.000000 (in units of recip. lattice)
  The gap value is above 0.2 eV. Unless you are using a very sparse k-point grid,
  this system is most likely an insulator or a semiconductor.

  Total energy components:
  | Sum of eigenvalues            :      -13282.49510134 Ha     -361435.08132193 eV
  | XC energy correction          :        -503.86778458 Ha      -13710.94002326 eV
  | XC potential correction       :         657.80429181 Ha       17899.76551027 eV
  | Free-atom electrostatic energy:       -8398.26766151 Ha     -228528.49047133 eV
  | Hartree energy correction     :          -0.69781833 Ha         -18.98860292 eV
  | vdW energy correction         :           0.00000000 Ha           0.00000000 eV
  | Entropy correction            :          -0.00000000 Ha          -0.00000000 eV
  | ---------------------------
  | Total energy                  :      -21527.52407395 Ha     -585793.73490917 eV
  | Total energy, T -> 0          :      -21527.52407395 Ha     -585793.73490917 eV  <-- do not rely on this value for anything but (periodic) metals
  | Electronic free energy        :      -21527.52407395 Ha     -585793.73490917 eV

  Derived energy quantities:
  | Kinetic energy                :       23361.72818497 Ha      635704.96822566 eV
  | Electrostatic energy          :      -44385.38447434 Ha    -1207787.76311156 eV
  | Energy correction for multipole
  | error in Hartree potential    :          -0.00000419 Ha          -0.00011394 eV
  | Sum of eigenvalues per atom                           :     -120478.36044064 eV
  | Total energy (T->0) per atom                          :     -195264.57830306 eV  <-- do not rely on this value for anything but (periodic) metals
  | Electronic free energy per atom                       :     -195264.57830306 eV

  Self-consistency convergence accuracy:
  | Change of charge density      :  0.1057E+00
  | Change of sum of eigenvalues  :  0.1906E+02 eV
  | Change of total energy        :  0.4763E-01 eV

  End self-consistency iteration #     1       :  max(cpu_time)    wall_clock(cpu1)
  | Time for this iteration                    :        2.088 s           2.089 s
  | Charge density update                      :        1.049 s           1.049 s
  | Density mixing & preconditioning           :        0.060 s           0.060 s
  | Hartree multipole update                   :        0.002 s           0.002 s
  | Hartree multipole summation                :        0.283 s           0.283 s
  | Integration                                :        0.549 s           0.549 s
  | Solution of K.-S. eqns.                    :        0.143 s           0.143 s
  | Total energy evaluation                    :        0.001 s           0.001 s

  Partial memory accounting:
  | Current value for overall tracked memory usage:
  |   Minimum:        6.024 MB (on task  0)
  |   Maximum:        6.209 MB (on task  1)
  |   Average:        6.101 MB
  | Peak value for overall tracked memory usage:
  |   Minimum:       18.526 MB (on task  4 after allocating gradient_basis_wave)
  |   Maximum:       20.956 MB (on task  8 after allocating gradient_basis_wave)
  |   Average:       19.555 MB
  | Largest tracked array allocation so far:
  |   Minimum:        6.016 MB (hamiltonian_shell on task  4)
  |   Maximum:        7.645 MB (hamiltonian_shell on task  8)
  |   Average:        6.773 MB
  Note:  These values currently only include a subset of arrays which are explicitly tracked.
  The "true" memory usage will be greater.
------------------------------------------------------------

------------------------------------------------------------
          Begin self-consistency iteration #    2

  Date     :  20200403, Time     :  101021.301
------------------------------------------------------------
  Evaluating new KS density using the density matrix
  Evaluating density matrix
  Time summed over all CPUs for getting density from density matrix: real work       23.537 s, elapsed       24.148 s
  Integration grid: deviation in total charge (<rho> - N_e) =   2.785328E-11
  Pulay mixing of updated and previous charge densities.
  Renormalizing the density to the exact electron count on the 3D integration grid.
  | Formal number of electrons (from input files) :     142.0000000000
  | Integrated number of electrons on 3D grid     :     141.9984747754
  | Charge integration error                      :      -0.0015252246
  | Normalization factor for density and gradient :       1.0000107411

  Evaluating partitioned Hartree potential by multipole expansion.
  | Original multipole sum: apparent total charge =   0.124305E-12
  | Sum of charges compensated after spline to logarithmic grids =   0.788015E-07
  | Analytical far-field extrapolation by fixed multipoles:
  | Hartree multipole sum: apparent total charge =   0.124298E-12
  Summing up the Hartree potential.
  Time summed over all CPUs for potential: real work        7.156 s, elapsed        7.300 s
  | RMS charge density error from multipole expansion :   0.185065E-02
  | Average real-space part of the electrostatic potential :      0.00231504 eV

  Integrating Hamiltonian matrix: batch-based integration.
  Time summed over all CPUs for integration: real work       12.700 s, elapsed       12.996 s

  Updating Kohn-Sham eigenvalues and eigenvectors using ELSI and the (modified) LAPACK eigensolver.
  Starting LAPACK eigensolver
  Finished Cholesky decomposition
  | Time :     0.001 s
  Finished transformation to standard eigenproblem
  | Time :     0.001 s
  Finished solving standard eigenproblem
  | Time :     0.003 s
  Finished back-transformation of eigenvectors
  | Time :     0.001 s

  Obtaining occupation numbers and chemical potential using ELSI.
  | Chemical potential (Fermi level):    -3.49732159 eV
  What follows are estimated values for band gap, HOMO, LUMO, etc.
  | They are estimated on a discrete k-point grid and not necessarily exact.
  | For converged numbers, create a DOS and/or band structure plot on a denser k-grid.

  Highest occupied state (VBM) at     -4.88128537 eV (relative to internal zero)
  | Occupation number:      2.00000000
  | K-point:     191 at    0.321429    0.321429    0.000000 (in units of recip. lattice)

  Lowest unoccupied state (CBM) at    -3.45560946 eV (relative to internal zero)
  | Occupation number:      0.00000000
  | K-point:     114 at    0.178571    0.642857    0.000000 (in units of recip. lattice)

  ESTIMATED overall HOMO-LUMO gap:      1.42567591 eV between HOMO at k-point 191 and LUMO at k-point 114
  | This appears to be an indirect band gap.
  | Smallest direct gap :      1.86717605 eV for k_point 191 at    0.178571    0.642857    0.000000 (in units of recip. lattice)
  The gap value is above 0.2 eV. Unless you are using a very sparse k-point grid,
  this system is most likely an insulator or a semiconductor.

  Total energy components:
  | Sum of eigenvalues            :      -13278.16608248 Ha     -361317.28272521 eV
  | XC energy correction          :        -503.84449369 Ha      -13710.30624603 eV
  | XC potential correction       :         657.77302082 Ha       17898.91458336 eV
  | Free-atom electrostatic energy:       -8398.26766151 Ha     -228528.49047133 eV
  | Hartree energy correction     :          -5.01455086 Ha        -136.45287148 eV
  | vdW energy correction         :           0.00000000 Ha           0.00000000 eV
  | Entropy correction            :          -0.00000000 Ha          -0.00000000 eV
  | ---------------------------
  | Total energy                  :      -21527.51976772 Ha     -585793.61773069 eV
  | Total energy, T -> 0          :      -21527.51976772 Ha     -585793.61773069 eV  <-- do not rely on this value for anything but (periodic) metals
  | Electronic free energy        :      -21527.51976772 Ha     -585793.61773069 eV

  Derived energy quantities:
  | Kinetic energy                :       23361.44966571 Ha      635697.38933116 eV
  | Electrostatic energy          :      -44385.12493974 Ha    -1207780.70081582 eV
  | Energy correction for multipole
  | error in Hartree potential    :          -0.00002076 Ha          -0.00056502 eV
  | Sum of eigenvalues per atom                           :     -120439.09424174 eV
  | Total energy (T->0) per atom                          :     -195264.53924356 eV  <-- do not rely on this value for anything but (periodic) metals
  | Electronic free energy per atom                       :     -195264.53924356 eV

  Self-consistency convergence accuracy:
  | Change of charge density      :  0.1013E+00
  | Change of sum of eigenvalues  :  0.1178E+03 eV
  | Change of total energy        :  0.1172E+00 eV

  End self-consistency iteration #     2       :  max(cpu_time)    wall_clock(cpu1)
  | Time for this iteration                    :        2.103 s           2.103 s
  | Charge density update                      :        1.034 s           1.035 s
  | Density mixing & preconditioning           :        0.053 s           0.053 s
  | Hartree multipole update                   :        0.002 s           0.002 s
  | Hartree multipole summation                :        0.320 s           0.320 s
  | Integration                                :        0.548 s           0.548 s
  | Solution of K.-S. eqns.                    :        0.143 s           0.143 s
  | Total energy evaluation                    :        0.001 s           0.001 s

  Partial memory accounting:
  | Current value for overall tracked memory usage:
  |   Minimum:        6.025 MB (on task  0)
  |   Maximum:        6.209 MB (on task  1)
  |   Average:        6.102 MB
  | Peak value for overall tracked memory usage:
  |   Minimum:       18.526 MB (on task  4 after allocating gradient_basis_wave)
  |   Maximum:       20.956 MB (on task  8 after allocating gradient_basis_wave)
  |   Average:       19.555 MB
  | Largest tracked array allocation so far:
  |   Minimum:        6.016 MB (hamiltonian_shell on task  4)
  |   Maximum:        7.645 MB (hamiltonian_shell on task  8)
  |   Average:        6.773 MB
  Note:  These values currently only include a subset of arrays which are explicitly tracked.
  The "true" memory usage will be greater.
------------------------------------------------------------

------------------------------------------------------------
          Begin self-consistency iteration #    3

  Date     :  20200403, Time     :  101023.405
------------------------------------------------------------
  Evaluating new KS density using the density matrix
  Evaluating density matrix
[...]
  The "true" memory usage will be greater.
------------------------------------------------------------
  Obtaining max. number of non-zero basis functions in each batch .
  Evaluating KS electron density on previously omitted grid points, using the density matrix.
  Evaluating density matrix

  Entering Libmbd.
  Libmbd: VdW method: mbd-nl
  Libmbd: Evaluating kinetic energy density...

  Evaluating density matrix

  Libmbd: Performing Hirshfeld analysis...
  Libmbd: Calculating MBD energy...
  Libmbd: Evaluated energy: -0.29051020951707474E-001

  Total energy components:
  | Sum of eigenvalues            :      -13279.87194760 Ha     -361363.70167696 eV
  | XC energy correction          :        -503.84876345 Ha      -13710.42243211 eV
  | XC potential correction       :         657.77662645 Ha       17899.01269755 eV
  | Free-atom electrostatic energy:       -8398.06043857 Ha     -228522.85164827 eV
  | Hartree energy correction     :          -3.51268869 Ha         -95.58512259 eV
  | vdW energy correction         :          -0.02905102 Ha          -0.79051850 eV
  | Entropy correction            :          -0.00000000 Ha          -0.00000000 eV
  | ---------------------------
  | Total energy                  :      -21527.54626288 Ha     -585794.33870087 eV
  | Total energy, T -> 0          :      -21527.54626288 Ha     -585794.33870087 eV  <-- do not rely on this value for anything but (periodic) metals
  | Electronic free energy        :      -21527.54626288 Ha     -585794.33870087 eV

  Derived energy quantities:
  | Kinetic energy                :       23361.18519498 Ha      635690.19271622 eV
  | Electrostatic energy          :      -44384.85364339 Ha    -1207773.31846648 eV
  | Energy correction for multipole
  | error in Hartree potential    :          -0.00001565 Ha          -0.00042591 eV
  | Sum of eigenvalues per atom                           :     -120454.56722565 eV
  | Total energy (T->0) per atom                          :     -195264.77956696 eV  <-- do not rely on this value for anything but (periodic) metals
  | Electronic free energy per atom                       :     -195264.77956696 eV

  atomic forces [eV/Ang]:
  -----------------------
  atom #    1
   Hellmann-Feynman              : -0.198171E-04 -0.107676E-04  0.398065E+02
   Ionic forces                  :  0.000000E+00  0.000000E+00  0.000000E+00
   Multipole                     :  0.148568E-05  0.487832E-05  0.695059E-01
   Pulay + GGA                   :  0.180540E-03 -0.389351E-04 -0.397953E+02
   Van der Waals                 :  0.879242E-05 -0.518345E-05 -0.804217E-01
   ----------------------------------------------------------------
   Total forces(   1)            :  0.171001E-03 -0.500078E-04  0.310232E-03
  atom #    2
   Hellmann-Feynman              : -0.200166E-02  0.316428E-02  0.525630E-02
   Ionic forces                  :  0.000000E+00  0.000000E+00  0.000000E+00
   Multipole                     :  0.462873E-06 -0.453301E-03 -0.340879E-04
   Pulay + GGA                   :  0.180982E-02 -0.250439E-02 -0.470482E-02
   Van der Waals                 : -0.181467E-04  0.103793E-04 -0.469620E-06
   ----------------------------------------------------------------
   Total forces(   2)            : -0.209522E-03  0.216961E-03  0.516926E-03
  atom #    3
   Hellmann-Feynman              : -0.181507E-04 -0.123968E-04 -0.398077E+02
   Ionic forces                  :  0.000000E+00  0.000000E+00  0.000000E+00
   Multipole                     :  0.531258E-06  0.490853E-05 -0.695132E-01
   Pulay + GGA                   :  0.520289E-04 -0.341126E-04  0.397960E+02
   Van der Waals                 :  0.935424E-05 -0.519582E-05  0.804222E-01
   ----------------------------------------------------------------
   Total forces(   3)            :  0.437637E-04 -0.467967E-04 -0.815250E-03


  Analytical stress tensor components [eV]         xx                  yy                  zz                  xy                  xz                  yz
  -----------------------------------------------------------------------------------------------------------------------------------------------------------
    Nuclear Hellmann-Feynman      :     0.1699002700E+02    0.1698832091E+02   -0.9146072991E+02   -0.5175115509E-03   -0.4153737176E-03    0.8724205827E-05
    Multipole Hellmann-Feynman    :    -0.5223639994E+02   -0.5223749160E+02   -0.1645787195E+03   -0.1056800581E-02   -0.7944158917E-03    0.1718505739E-04
    On-site Multipole corrections :    -0.5445071811E+01   -0.5445451746E+01   -0.5445177915E+01   -0.9271448033E-08   -0.6604785302E-09    0.9627209302E-08
    Strain deriv. of the orbitals :     0.3984257711E+02    0.3984672919E+02    0.2613020254E+03    0.1497822833E-02    0.9934757053E-03   -0.2097628794E-04
    vdW correction   :     0.8451875569E+00    0.8454917684E+00    0.2718004895E+00    0.2636761740E-03    0.9481901144E-06   -0.2070191696E-07
  -----------------------------------------------------------------------------------------------------------------------------------------------------------
  Sum of all contributions        :    -0.3680086643E-02   -0.2401477213E-02    0.8919855105E-01    0.1871776039E-03   -0.2153663743E-03    0.4921900564E-05

  +-------------------------------------------------------------------+
  |              Analytical stress tensor - Symmetrized               |
  |                  Cartesian components [eV/A**3]                   |
  +-------------------------------------------------------------------+
  |                x                y                z                |
  |                                                                   |
  |  x        -0.00000382       0.00000019      -0.00000022           |
  |  y         0.00000019      -0.00000249       0.00000001           |
  |  z        -0.00000022       0.00000001       0.00009266           |
  |                                                                   |
  |  Pressure:      -0.00002878   [eV/A**3]                           |
  |                                                                   |
  +-------------------------------------------------------------------+

 * Warning: Stress tensor is anisotropic. Be aware that pressure is an isotropic quantity.


  Leaving Libmbd.

  Timings for VdW correction (Tkatchenko-Scheffler 2009 or later):
  | CPU time:        1.848 s, Wall clock time:        1.848 s.
  Removing unitary transformations (pure translations, rotations) from forces on atoms.
  Atomic forces before filtering:
  | Net force on center of mass :   0.524291E-05  0.120156E-03  0.119077E-04 eV/A
  Atomic forces after filtering:
  | Net force on center of mass :   0.000000E+00 -0.435562E-19  0.000000E+00 eV/A

  Energy and forces in a compact form:
  | Total energy uncorrected      :         -0.585794338700874E+06 eV
  | Total energy corrected        :         -0.585794338700874E+06 eV  <-- do not rely on this value for anything but (periodic) metals
  | Electronic free energy        :         -0.585794338700874E+06 eV
  Total atomic forces (unitary forces cleaned) [eV/Ang]:
  |    1          0.169253288641115E-03         -0.900598605793070E-04          0.306262460311491E-03
  |    2         -0.211269342589972E-03          0.176908582520054E-03          0.512956903979485E-03
  |    3          0.420160539488566E-04         -0.868487219407471E-04         -0.819219364290977E-03

  ------------------------------------ 
  Start decomposition of the XC Energy 
  ------------------------------------ 
  X and C from original XC functional choice 
  Hartree-Fock Energy :          0.000000000 Ha              0.000000000 eV
  X Energy            :       -495.977800023 Ha         -13496.242619886 eV
  C Energy            :         -7.870963428 Ha           -214.179812226 eV
  Total XC Energy     :       -503.848763451 Ha         -13710.422432113 eV
  ------------------------------------ 
  LDA X and C from self-consistent density 
  X Energy LDA        :       -473.764889448 Ha         -12891.798569382 eV
  C Energy LDA        :        -13.825955298 Ha           -376.223385694 eV
  ------------------------------------ 
  End decomposition of the XC Energy 
  ------------------------------------ 

------------------------------------------------------------
  Relaxation / MD: End force evaluation.       :  max(cpu_time)    wall_clock(cpu1)
  | Time for this force evaluation             :       55.174 s          55.229 s

------------------------------------------------------------
  Geometry optimization: Attempting to predict improved coordinates.

  +-------------------------------------------------------------------+
  | Generalized derivatives on lattice vectors [eV/A]                 |
  +-------------------------------------------------------------------+
  |lattice_vector      -0.00108635      -0.00036474      -0.00006463  |
  |lattice_vector       0.00006573      -0.00084334       0.00000173  |
  |lattice_vector      -0.00000209       0.00000005       0.00086759  |
  +-------------------------------------------------------------------+
  | Forces on lattice vectors cleaned from atomic contributions [eV/A]|
  +-------------------------------------------------------------------+
  |lattice_vector       0.00108635       0.00036474       0.00006463  |
  |lattice_vector      -0.00006573       0.00084334      -0.00000173  |
  |lattice_vector       0.00000209      -0.00000005      -0.00086759  |
  +-------------------------------------------------------------------+
  Symmetrized total atomic cartesian forces [eV/Ang]:
  |   1     0.1692532886E-03    -0.9005986058E-04     0.3062624603E-03
  |   2    -0.2112693426E-03     0.1769085825E-03     0.5129569040E-03
  |   3     0.4201605395E-04    -0.8684872194E-04    -0.8192193643E-03
  +-------------------------------------------------------------------+
  | Symmetrized forces on lattice vectors cleaned from symmetrized
  | atomic contributions [eV/A]|
  +-------------------------------------------------------------------+
  |lattice_vector       0.00092478       0.00000000       0.00000000  |
  |lattice_vector      -0.00046239       0.00080089       0.00000000  |
  |lattice_vector       0.00000000       0.00000000      -0.00086759  |
  +-------------------------------------------------------------------+
  Removing unitary transformations (pure translations, rotations) from forces on atoms.
  Atomic forces before filtering:
  | Net force on center of mass :  -0.544452E-20 -0.544452E-19  0.000000E+00 eV/A
  Atomic forces after filtering:
  | Net force on center of mass :  -0.544452E-20 -0.108890E-19  0.000000E+00 eV/A
  Net remaining forces (excluding translations, rotations) in present geometry:
  || Forces on atoms   || =   0.819219E-03 eV/A.
  || Forces on lattice || =   0.924785E-03 eV/A^3.
  Maximum force component is  0.924785E-03 eV/A.
  Present geometry is converged.

  Symmetry-reduced parameters:
  | atomic   1          0.734949947497490E-04
  | atomic   2          0.153835430160338E-03
  | atomic   3          0.500047738083187E+00
  | atomic   4          0.333411000378123E+00
  | atomic   5          0.666817646437327E+00
  | atomic   6          0.483626504401947E+00
  | atomic   7          0.781035884973410E-04
  | atomic   8          0.153716055246345E-03
  | atomic   9          0.467205614272401E+00
  | lattice  1          0.328809691879507E+01
  | lattice  2          0.102812385137288E+03
  Symmetry-reduced forces:
  | atomic   1          0.556521216876784E-03
  | atomic   2         -0.534712857515523E-03
  | atomic   3          0.314875740226384E-01
  | atomic   4         -0.694674074405946E-03
  | atomic   5          0.851097575765692E-03
  | atomic   6          0.527383227707697E-01
  | atomic   7          0.138152857529163E-03
  | atomic   8         -0.316384718250169E-03
  | atomic   9         -0.842258967934082E-01
  | lattice  1          0.184956952497009E-02
  | lattice  2         -0.867585660300595E-03
------------------------------------------------------------
  Final atomic structure:
                         x [A]             y [A]             z [A]
  lattice_vector         3.28809692        0.00000000        0.00000000
  lattice_vector        -1.64404846        2.84757546        0.00000000
  lattice_vector         0.00000000        0.00000000      102.81238514

            atom        -0.00001125        0.00043806      -51.40128450  Se
            atom         1.64405562       -0.94876189       49.72279443  W
            atom         0.00000410        0.00043772       48.03452355  Se

  Fractional coordinates:
                         L1                L2                L3
       atom_frac         0.00007349        0.00015384       -0.49995226  Se
       atom_frac         0.33341100       -0.33318235        0.48362650  W
       atom_frac         0.00007810        0.00015372        0.46720561  Se
------------------------------------------------------------

------------------------------------------------------------------------------
  Final output of selected total energy values:

  The following output summarizes some interesting total energy values
  at the end of a run (AFTER all relaxation, molecular dynamics, etc.).

  | Total energy of the DFT / Hartree-Fock s.c.f. calculation      :        -585794.338700874 eV
  | Final zero-broadening corrected energy (caution - metals only) :        -585794.338700874 eV
  | For reference only, the value of 1 Hartree used in FHI-aims is :             27.211384500 eV
  | For reference only, the overall average (free atom contribution
  | + realspace contribution) of the electrostatic potential after
  | s.c.f. convergence is                                          :             -1.316102710 eV

  Before relying on these values, please be sure to understand exactly which
  total energy value is referred to by a given number. Different objects may
  all carry the same name 'total energy'. Definitions:

  Total energy of the DFT / Hartree-Fock s.c.f. calculation:
  | Note that this energy does not include ANY quantities calculated after the
  | s.c.f. cycle, in particular not ANY RPA, MP2, etc. many-body perturbation terms.

  Final zero-broadening corrected energy:
  | For metallic systems only, a broadening of the occupation numbers at the Fermi
  | level can be extrapolated back to zero broadening by an electron-gas inspired
  | formula. For all systems that are not real metals, this value can be
  | meaningless and should be avoided.

------------------------------------------------------------------------------
  Methods described in the following list of references were used in this FHI-aims run.
  If you publish the results, please make sure to cite these reference if they apply.
  FHI-aims is an academic code, and for our developers (often, Ph.D. students
  and postdocs), scientific credit in the community is essential.
  Thank you for helping us!

  For any use of FHI-aims, please cite:

    Volker Blum, Ralf Gehrke, Felix Hanke, Paula Havu, Ville Havu,
    Xinguo Ren, Karsten Reuter, and Matthias Scheffler
    'Ab initio molecular simulations with numeric atom-centered orbitals'
    Computer Physics Communications 180, 2175-2196 (2009)
    http://dx.doi.org/10.1016/j.cpc.2009.06.022


  For the analytical stress tensor used in your run, please cite:

    Franz Knuth, Christian Carbogno, Viktor Atalla, Volker Blum, Matthias Scheffler
    'All-electron formalism for total energy strain derivatives and
    stress tensor components for numeric atom-centered orbitals'
    Computer Physics Communications 190, 33-50 (2015).
    http://dx.doi.org/10.1016/j.cpc.2015.01.003


  The provided symmetry information was generated with SPGlib:

    Atsushi Togo, Yusuke Seto, Dimitar Pashov
    SPGlib 1.7.3 obtained from http://spglib.sourceforge.net
    Copyright (C) 2008 Atsushi Togo


  The ELSI infrastructure was used in your run to solve the Kohn-Sham electronic structure.
  Please check out http://elsi-interchange.org to learn more.
  If scalability is important for your project, please acknowledge ELSI by citing:

    V. W-z. Yu, F. Corsetti, A. Garcia, W. P. Huhn, M. Jacquelin, W. Jia,
    B. Lange, L. Lin, J. Lu, W. Mi, A. Seifitokaldani, A. Vazquez-Mayagoitia,
    C. Yang, H. Yang, and V. Blum
    'ELSI: A unified software interface for Kohn-Sham electronic structure solvers'
    Computer Physics Communications 222, 267-285 (2018).
    http://dx.doi.org/10.1016/j.cpc.2017.09.007


  For the real-space grid partitioning and parallelization used in this calculation, please cite:

    Ville Havu, Volker Blum, Paula Havu, and Matthias Scheffler,
    'Efficient O(N) integration for all-electron electronic structure calculation'
    'using numerically tabulated basis functions'
    Journal of Computational Physics 228, 8367-8379 (2009).
    http://dx.doi.org/10.1016/j.jcp.2009.08.008

  Of course, there are many other important community references, e.g., those cited in the
  above references. Our list is limited to references that describe implementations in the
  FHI-aims code. The reason is purely practical (length of this list) - please credit others as well.

------------------------------------------------------------
          Leaving FHI-aims.
          Date     :  20200403, Time     :  103408.378

          Computational steps:
          | Number of self-consistency cycles          :          311
          | Number of SCF (re)initializations          :           25
          | Number of relaxation steps                 :           24

          Detailed time accounting                     :  max(cpu_time)    wall_clock(cpu1)
          | Total time                                 :     1432.872 s        1433.892 s
          | Preparation time                           :        0.712 s           0.776 s
          | Boundary condition initalization           :       28.768 s          28.742 s
          | Grid partitioning                          :       12.892 s          12.893 s
          | Preloading free-atom quantities on grid    :        3.713 s           3.715 s
          | Free-atom superposition energy             :        0.480 s           0.478 s
          | Total time for integrations                :      184.233 s         184.216 s
          | Total time for solution of K.-S. equations :       45.045 s          45.171 s
          | Total time for EV reorthonormalization     :        0.775 s           0.737 s
          | Total time for density & force components  :      927.695 s         927.792 s
          | Total time for mixing & preconditioning    :       15.689 s          15.733 s
          | Total time for Hartree multipole update    :        0.749 s           0.749 s
          | Total time for Hartree multipole sum       :      163.398 s         163.435 s
          | Total time for total energy evaluation     :        0.360 s           0.430 s
          | Total time for scaled ZORA corrections     :        0.000 s           0.000 s
          | Total time for vdW correction              :       44.648 s          44.661 s

          Partial memory accounting:
          | Residual value for overall tracked memory usage across tasks:     0.000000 MB (should be 0.000000 MB)
          | Peak values for overall tracked memory usage:
          |   Minimum:       43.975 MB (on task  2 after allocating d_wave)
          |   Maximum:       48.661 MB (on task  1 after allocating d_wave)
          |   Average:       46.063 MB
          | Largest tracked array allocation:
          |   Minimum:        8.348 MB (hessian_basis_wave on task  2)
          |   Maximum:        9.290 MB (hessian_basis_wave on task  1)
          |   Average:        8.810 MB
          Note:  These values currently only include a subset of arrays which are explicitly tracked.
          The "true" memory usage will be greater.

          Have a nice day.
------------------------------------------------------------
