------------------------------------------------------------
          Invoking FHI-aims ...

          When using FHI-aims, please cite the following reference:

          Volker Blum, Ralf Gehrke, Felix Hanke, Paula Havu,
          Ville Havu, Xinguo Ren, Karsten Reuter, and Matthias Scheffler,
          'Ab Initio Molecular Simulations with Numeric Atom-Centered Orbitals',
          Computer Physics Communications 180, 2175-2196 (2009)

          For any questions about FHI-aims, please visit the aimsclub website
          with its forums and wiki. Contributions to both the forums and the
          wiki are warmly encouraged - they are for you, and everyone is welcome there.

------------------------------------------------------------



  Date     :  20200402, Time     :  184553.011
  Time zero on CPU 1             :   0.697790000000000E-01  s.
  Internal wall clock time zero  :           355085153.011  s.

  FHI-aims created a unique identifier for this run for later identification
  aims_uuid : 6BE1F946-3BA0-4538-A968-60B5D88A6C2B

  Build configuration of the current instance of FHI-aims
  -------------------------------------------------------
  FHI-aims version      : 200112
  Commit number         : 23daeca3f
  CMake host system     : Linux-3.10.0-693.21.1.el7.x86_64
  CMake version         : 3.13.3
  Fortran compiler      : /sw/installed/impi/2018.4.274-iccifort-2019.1.144-GCC-8.2.0-2.31.1/bin64/mpiifort (Intel) version 19.0.0.20181018
  Fortran compiler flags: -O3 -ip -fp-model precise
  C compiler            : /sw/installed/impi/2018.4.274-iccifort-2019.1.144-GCC-8.2.0-2.31.1/bin64/mpiicc (Intel) version 19.0.0.20181018
  C compiler flags      : -O3 -ip -fp-model precise
  Architecture          :
  Using MPI
  Using Scalapack
  Using C files
  Using LibXC
  Using SPGlib
  Using i-PI
  Using RLSY
  Linking against: /sw/installed/imkl/2019.1.144-iimpi-2019a/mkl/lib/intel64/libmkl_intel_lp64.so
                   /sw/installed/imkl/2019.1.144-iimpi-2019a/mkl/lib/intel64/libmkl_sequential.so
                   /sw/installed/imkl/2019.1.144-iimpi-2019a/mkl/lib/intel64/libmkl_core.so
                   /sw/installed/imkl/2019.1.144-iimpi-2019a/mkl/lib/intel64/libmkl_blacs_intelmpi_lp64.so
                   /sw/installed/imkl/2019.1.144-iimpi-2019a/mkl/lib/intel64/libmkl_scalapack_lp64.so

  Using       24 parallel tasks.
  Task        0 on host taurusi6503.taurus.hrsk.tu-dresden.de reporting.
  Task        1 on host taurusi6503.taurus.hrsk.tu-dresden.de reporting.
  Task        2 on host taurusi6503.taurus.hrsk.tu-dresden.de reporting.
  Task        3 on host taurusi6503.taurus.hrsk.tu-dresden.de reporting.
  Task        4 on host taurusi6503.taurus.hrsk.tu-dresden.de reporting.
  Task        5 on host taurusi6503.taurus.hrsk.tu-dresden.de reporting.
  Task        6 on host taurusi6503.taurus.hrsk.tu-dresden.de reporting.
  Task        7 on host taurusi6503.taurus.hrsk.tu-dresden.de reporting.
  Task        8 on host taurusi6503.taurus.hrsk.tu-dresden.de reporting.
  Task        9 on host taurusi6503.taurus.hrsk.tu-dresden.de reporting.
  Task       10 on host taurusi6503.taurus.hrsk.tu-dresden.de reporting.
  Task       11 on host taurusi6503.taurus.hrsk.tu-dresden.de reporting.
  Task       12 on host taurusi6503.taurus.hrsk.tu-dresden.de reporting.
  Task       13 on host taurusi6503.taurus.hrsk.tu-dresden.de reporting.
  Task       14 on host taurusi6503.taurus.hrsk.tu-dresden.de reporting.
  Task       15 on host taurusi6503.taurus.hrsk.tu-dresden.de reporting.
  Task       16 on host taurusi6503.taurus.hrsk.tu-dresden.de reporting.
  Task       17 on host taurusi6503.taurus.hrsk.tu-dresden.de reporting.
  Task       18 on host taurusi6503.taurus.hrsk.tu-dresden.de reporting.
  Task       19 on host taurusi6503.taurus.hrsk.tu-dresden.de reporting.
  Task       20 on host taurusi6503.taurus.hrsk.tu-dresden.de reporting.
  Task       21 on host taurusi6503.taurus.hrsk.tu-dresden.de reporting.
  Task       22 on host taurusi6503.taurus.hrsk.tu-dresden.de reporting.
  Task       23 on host taurusi6503.taurus.hrsk.tu-dresden.de reporting.

  Performing system and environment tests:
  | Environment variable OMP_NUM_THREADS correctly set to 1.
  | Maximum stacksize for task 0: unlimited
  | Maximum stacksize for task 1: unlimited
  | Maximum stacksize for task 2: unlimited
  | Maximum stacksize for task 3: unlimited
  | Maximum stacksize for task 4: unlimited
  | Maximum stacksize for task 5: unlimited
  | Maximum stacksize for task 6: unlimited
  | Maximum stacksize for task 7: unlimited
  | Maximum stacksize for task 8: unlimited
  | Maximum stacksize for task 9: unlimited
  | Maximum stacksize for task 10: unlimited
  | Maximum stacksize for task 11: unlimited
  | Maximum stacksize for task 12: unlimited
  | Maximum stacksize for task 13: unlimited
  | Maximum stacksize for task 14: unlimited
  | Maximum stacksize for task 15: unlimited
  | Maximum stacksize for task 16: unlimited
  | Maximum stacksize for task 17: unlimited
  | Maximum stacksize for task 18: unlimited
  | Maximum stacksize for task 19: unlimited
  | Maximum stacksize for task 20: unlimited
  | Maximum stacksize for task 21: unlimited
  | Maximum stacksize for task 22: unlimited
  | Maximum stacksize for task 23: unlimited
  | Current stacksize for task 0: unlimited
  | Current stacksize for task 1: unlimited
  | Current stacksize for task 2: unlimited
  | Current stacksize for task 3: unlimited
  | Current stacksize for task 4: unlimited
  | Current stacksize for task 5: unlimited
  | Current stacksize for task 6: unlimited
  | Current stacksize for task 7: unlimited
  | Current stacksize for task 8: unlimited
  | Current stacksize for task 9: unlimited
  | Current stacksize for task 10: unlimited
  | Current stacksize for task 11: unlimited
  | Current stacksize for task 12: unlimited
  | Current stacksize for task 13: unlimited
  | Current stacksize for task 14: unlimited
  | Current stacksize for task 15: unlimited
  | Current stacksize for task 16: unlimited
  | Current stacksize for task 17: unlimited
  | Current stacksize for task 18: unlimited
  | Current stacksize for task 19: unlimited
  | Current stacksize for task 20: unlimited
  | Current stacksize for task 21: unlimited
  | Current stacksize for task 22: unlimited
  | Current stacksize for task 23: unlimited
  | Checking for scalapack...
  | Testing pdtran()...
  | All pdtran() tests passed.

  Obtaining array dimensions for all initial allocations:
  
  -----------------------------------------------------------------------
  Parsing control.in (first pass over file, find array dimensions only).
  The contents of control.in will be repeated verbatim below
  unless switched off by setting 'verbatim_writeout .false.' .
  in the first line of control.in .
  -----------------------------------------------------------------------
  
  #===============================================================================
  # FHI-aims file: ./control.in
  # Created using the Atomic Simulation Environment (ASE)
  # Thu Apr  2 11:28:28 2020
  #===============================================================================
  xc                                 pbe
  # include_spin_orbit
  # vdw_correction_hirshfeld
  many_body_dispersion_nl 	 beta=0.81
  spin                               none
  k_grid 	 	 4 4 1
  relativistic                       atomic_zora scalar
  ### SCF settings
  adjust_scf 	 always 	 3
  # frozen_core_scf 	 .true.
  # charge_mix_param  0.05
  # occupation_type 	 gaussian 	 0.01
  # sc_accuracy_eev   1E-3 	 	 # sum of eigenvalues convergence
  # sc_accuracy_etot  1E-6 	 	 # total energy convergence
  # sc_accuracy_rho   1E-3 	 	 # electron density convergence
  # elsi_restart 	 read_and_write 	 1000
  ### geometry optimisation section
  relax_geometry 	 bfgs 	 1E-2
  relax_unit_cell 	 full
  #===============================================================================
  
  ################################################################################
  #
  #  FHI-aims code project
  # Volker Blum, Fritz Haber Institute Berlin, 2009
  #
  #  Suggested "tight" defaults for Se atom (to be pasted into control.in file)
  #
  ################################################################################
    species        Se
  #     global species definitions
      nucleus             34
      mass                78.96
  #
      l_hartree           6
  #
      cut_pot             4.0          2.0  1.0
      basis_dep_cutoff    1e-4
  #
      radial_base         55 7.0
      radial_multiplier   2
      angular_grids       specified
        division   0.0830  110
        division   0.1357  194
        division   0.7377  302
        division   0.8610  434
  #      division   0.9640  590
  #      division   1.0773  770
  #      division   2.5539  974
  #      outer_grid  974
        outer_grid  434
  ################################################################################
  #
  #  Definition of "minimal" basis
  #
  ################################################################################
  #     valence basis states
      valence      4  s   2.
      valence      4  p   4.
      valence      3  d  10.
  #     ion occupancy
      ion_occ      4  s   1.
      ion_occ      4  p   3.
      ion_occ      3  d  10.
  ################################################################################
  #
  #  Suggested additional basis functions. For production calculations,
  #  uncomment them one after another (the most important basis functions are
  #  listed first).
  #
  #  Constructed for dimers: 1.85 A, 2.15 A, 2.50 A, 3.00 A, 4.00 A
  #
  ################################################################################
  #  "First tier" - improvements: -336.21 meV to -36.85 meV
       hydro 3 d 4.3
       hydro 2 p 1.6
       hydro 4 f 7.2
       ionic 4 s auto
  #  "Second tier" - improvements: -14.39 meV to -1.49 meV
  #     hydro 5 g 10.4
  #     hydro 4 p 4.5
  #     hydro 4 d 6.2
  #     hydro 4 f 11.2
  #     hydro 1 s 0.65
  #     hydro 6 h 15.2
  #  "Third tier" - improvements: -0.46 meV and below
  #     hydro 5 g 14.4
  #     ionic 4 d auto
  #     hydro 4 f 22.4
  #     hydro 5 f 7.4
  #     hydro 5 p 8
  #     hydro 5 s 9.4
  #  "Fourth tier" - improvements: -0.12 meV and below
  #     hydro 5 d 11.6
  #     hydro 6 h 18
  #     hydro 4 p 4
  #     hydro 5 f 16
  #     hydro 4 s 3.9
  #
  #
  ################################################################################
  #
  #  FHI-aims code project
  # Volker Blum, Fritz Haber Institute Berlin, 2009
  #
  #  Suggested "tight" defaults for Pt atom (to be pasted into control.in file)
  #
  ################################################################################
    species        Pt
  #     global species definitions
      nucleus             78
      mass                195.084
  #
      l_hartree           6
  #
      cut_pot             4.0  2.0  1.0
      basis_dep_cutoff    1e-4
  #
      radial_base         72 7.0
      radial_multiplier   2
      angular_grids specified
        division   0.3279   50
        division   0.7476  110
        division   1.0850  194
        division   1.2652  302
        division   1.6291  434
  #      division   1.9966  590
  #      division   2.1207  770
  #      division   2.1534  974
  #      division   2.7454 1202
  #      outer_grid    974
        outer_grid  434
  ################################################################################
  #
  #  Definition of "minimal" basis
  #
  ################################################################################
  #     valence basis states
      valence      6  s   1.
      valence      5  p   6.
      valence      5  d   9.
      valence      4  f  14.
  #     ion occupancy
      ion_occ     6  s   0.
      ion_occ     5  p   6.
      ion_occ     5  d   8.
      ion_occ     4  f   14.
  ################################################################################
  #
  #  Suggested additional basis functions. For production calculations,
  #  uncomment them one after another (the most important basis functions are
  #  listed first).
  #
  #  Constructed for dimers: 2.00, 2.275, 2.75, 3.75 AA
  #
  ################################################################################
  #  "First tier" - max. impr. -193.66  meV, min. impr. -18.25 meV
       hydro 4 f 7.4
       ionic 6 p auto
       hydro 5 g 9.8
       ionic 6 s auto
       hydro 3 d 2.6
  #  "Second tier" - max. impr. -10.25  meV, min. impr. -0.56 meV
  #     hydro 6 h 14
  #     hydro 5 f 14
  #     hydro 4 d 4
  #     hydro 3 p 3.3
  #     hydro 5 g 16.4
  #     hydro 1 s 0.5
  #  "Third tier" - max. impr. -0.72  meV, min. impr. -0.18 meV
  #     hydro 5 f 9
  #     ionic 5 d auto
  #     hydro 6 h 16.4
  #     hydro 5 g 12.4
  #     hydro 5 g 34
  #     hydro 5 s 13.6
  #     hydro 5 p 10.4
  #  Further functions:
  
  -----------------------------------------------------------------------
  Completed first pass over input file control.in .
  -----------------------------------------------------------------------
  
  
  -----------------------------------------------------------------------
  Parsing geometry.in (first pass over file, find array dimensions only).
  The contents of geometry.in will be repeated verbatim below
  unless switched off by setting 'verbatim_writeout .false.' .
  in the first line of geometry.in .
  -----------------------------------------------------------------------
  
  #=======================================================
  # FHI-aims file: geometry.in
  # Created using the Atomic Simulation Environment (ASE)
  # Thu Apr  2 11:28:28 2020
  #=======================================================
  lattice_vector 3.7869355100000002 0.0000000000000000 0.0000000000000000
  lattice_vector -1.8934677600000001 3.2795823600000000 0.0000000000000000
  lattice_vector 0.0000000000000000 0.0000000000000000 102.6121382299999993
  atom_frac 0.0000000000000000 0.6666666666666666 0.5000000000269269 Se
  atom_frac 0.3333333342135524 0.3333333333333333 0.4745435747437404 Se
  atom_frac 0.6666666657864475 0.0000000000000000 0.4872717874340609 Pt
  symmetry_n_params 11 2 9
  symmetry_params a1 c3 x0 x1 x2 x3 x4 x5 x6 x7 x8
  symmetry_lv a1 , 0 , 0
  symmetry_lv -a1/2 , sqrt(3.0)*a1/2 , 0
  symmetry_lv 0 , 0 , c3
  symmetry_frac x0 , x1 , x2
  symmetry_frac x3 , x4 , x5
  symmetry_frac x6 , x7 , x8
  
  -----------------------------------------------------------------------
  Completed first pass over input file geometry.in .
  -----------------------------------------------------------------------
  

  Basic array size parameters:
  | Number of species                 :        2
  | Number of atoms                   :        3
  | Number of lattice vectors         :        3
  | Max. basis fn. angular momentum   :        4
  | Max. atomic/ionic basis occupied n:        6
  | Max. number of basis fn. types    :        3
  | Max. radial fns per species/type  :       14
  | Max. logarithmic grid size        :     1487
  | Max. radial integration grid size :      145
  | Max. angular integration grid size:      434
  | Max. angular grid division number :        8
  | Radial grid for Hartree potential :     1487
  | Number of spin channels           :        1

------------------------------------------------------------
          Reading file control.in.
------------------------------------------------------------
  XC: Using PBE gradient-corrected functionals.
  Using libMBD for calculating MBD and TS energies
  Spin treatment: No spin polarisation.
  Found k-point grid:         4         4         1
  Scalar relativistic treatment of kinetic energy: on-site free-atom approximation to ZORA.
  S.C.F. convergence parameters will be adjusted in iteration number     3 of each new s.c.f. cycle.
  Geometry relaxation: Modified BFGS - TRM (trust radius method) for lattice optimization.
  Convergence accuracy for geometry relaxation: Maximum force <   0.100000E-01 eV/A.
 
  Reading configuration options for species Se                  .
  | Found nuclear charge :  34.0000
  | Found atomic mass :    78.9600000000000      amu
  | Found l_max for Hartree potential  :   6
  | Found cutoff potl. onset [A], width [A], scale factor :    4.00000    2.00000    1.00000
  | Threshold for basis-dependent cutoff potential is   0.100000E-03
  | Found data for basic radial integration grid :    55 points, outermost radius =    7.000 A
  | Found multiplier for basic radial grid :   2
  | Found angular grid specification: user-specified.
  | Specified grid contains     5 separate shells.
  | Check grid settings after all constraints further below.
  | Found free-atom valence shell :  4 s   2.000
  | Found free-atom valence shell :  4 p   4.000
  | Found free-atom valence shell :  3 d  10.000
  | Found free-ion valence shell :  4 s   1.000
  | Found free-ion valence shell :  4 p   3.000
  | Found free-ion valence shell :  3 d  10.000
  | Found hydrogenic basis function :  3 d   4.300
  | Found hydrogenic basis function :  2 p   1.600
  | Found hydrogenic basis function :  4 f   7.200
  | Found ionic basis function :  4 s , default cutoff radius.
  Species Se                  : Missing cutoff potential type.
  Defaulting to exp(1/x)/(1-x)^2 type cutoff potential.
  Species Se: No 'logarithmic' tag. Using default grid for free atom:
  | Default logarithmic grid data [bohr] : 0.1000E-03 0.1000E+03 0.1012E+01
  | Will include ionic basis functions of  2.0-fold positive Se                   ion.
  Species Se: On-site basis accuracy parameter (for Gram-Schmidt orthonormalisation) not specified.
  Using default value basis_acc =  0.1000000E-03.
  Species Se                  : Using default innermost maximum threshold i_radial=  2 for radial functions.
  Species Se                  : Default cutoff onset for free atom density etc. : 0.40000000E+01 AA.
  Species Se                  : Basic radial grid will be enhanced according to radial_multiplier =   2, to contain   111 grid points.
 
  Reading configuration options for species Pt                  .
  | Found nuclear charge :  78.0000
  | Found atomic mass :    195.084000000000      amu
  | Found l_max for Hartree potential  :   6
  | Found cutoff potl. onset [A], width [A], scale factor :    4.00000    2.00000    1.00000
  | Threshold for basis-dependent cutoff potential is   0.100000E-03
  | Found data for basic radial integration grid :    72 points, outermost radius =    7.000 A
  | Found multiplier for basic radial grid :   2
  | Found angular grid specification: user-specified.
  | Specified grid contains     6 separate shells.
  | Check grid settings after all constraints further below.
  | Found free-atom valence shell :  6 s   1.000
  | Found free-atom valence shell :  5 p   6.000
  | Found free-atom valence shell :  5 d   9.000
  | Found free-atom valence shell :  4 f  14.000
  | Found free-ion valence shell :  6 s   0.000
  | Found free-ion valence shell :  5 p   6.000
  | Found free-ion valence shell :  5 d   8.000
  | Found free-ion valence shell :  4 f  14.000
  | Found hydrogenic basis function :  4 f   7.400
  | Found ionic basis function :  6 p , default cutoff radius.
  | Found hydrogenic basis function :  5 g   9.800
  | Found ionic basis function :  6 s , default cutoff radius.
  | Found hydrogenic basis function :  3 d   2.600
  Species Pt                  : Missing cutoff potential type.
  Defaulting to exp(1/x)/(1-x)^2 type cutoff potential.
  Species Pt: No 'logarithmic' tag. Using default grid for free atom:
  | Default logarithmic grid data [bohr] : 0.1000E-03 0.1000E+03 0.1012E+01
  | Will include ionic basis functions of  2.0-fold positive Pt                   ion.
  Species Pt: On-site basis accuracy parameter (for Gram-Schmidt orthonormalisation) not specified.
  Using default value basis_acc =  0.1000000E-03.
  Species Pt                  : Using default innermost maximum threshold i_radial=  2 for radial functions.
  Species Pt                  : Default cutoff onset for free atom density etc. : 0.40000000E+01 AA.
  Species Pt                  : Basic radial grid will be enhanced according to radial_multiplier =   2, to contain   145 grid points.
 
  Finished reading input file 'control.in'. Consistency checks are next.
 
  MPI_IN_PLACE appears to work with this MPI implementation.
  | Keeping use_mpi_in_place .true. (see manual).
  Target number of points in a grid batch is not set. Defaulting to  100
  Method for grid partitioning is not set. Defaulting to parallel hash+maxmin partitioning.
  Batch size limit is not set. Defaulting to    200
  By default, will store active basis functions for each batch.
  If in need of memory, prune_basis_once .false. can be used to disable this option.
  communication_type for Hartree potential was not specified.
  Defaulting to calc_hartree .
  Defaulting to Pulay charge density mixer.
  Pulay mixer: Number of relevant iterations not set.
  Defaulting to    8 iterations.
  Pulay mixer: Number of initial linear mixing iterations not set.
  Defaulting to    0 iterations.
  Work space size for distributed Hartree potential not set.
  Defaulting to   0.200000E+03 MB.
  Mixing parameter for charge density mixing has not been set.
  Using default: charge_mix_param =     0.0500.
  The mixing parameter will be adjusted in iteration number     3 of each s.c.f. cycle (i.e., each geometry step).
  Algorithm-dependent basis array size parameters:
  | n_max_pulay                         :        8
  Maximum number of self-consistency iterations not provided.
  Presetting  1000 iterations.
  Presetting      1001 iterations before the initial mixing cycle
  is restarted anyway using the sc_init_iter criterion / keyword.
  Presetting a factor      1.000 between actual scf density residual
  and density convergence criterion sc_accuracy_rho below which sc_init_iter
  takes no effect.
 * No s.c.f. convergence criteria (sc_accuracy_*) were provided in control.in.
 * The run will proceed with a reasonable default guess, but please check whether.
 * the s.c.f. cycles seem to take too much or too little time.
  No maximum number of relaxation steps, defaulting to     1000
  Default initial Hessian is Lindh matrix (thres = 15.00) plus  0.200000E+01 eV/A^2 times unity.
  No maximum energy tolerance for TRM/BFGS moves, defaulting to   0.100000E-02
  Maximum energy tolerance by which TRM/BFGS trajectory may increase over multiple steps:   0.300000E-02
  No harmonic length scale. Defaulting to   0.250000E-01 A.
  No trust radius initializer. Defaulting to   0.200000E+00 A.
  Unit cell relaxation: Unit cell will be relaxed fully.
  Unit cell relaxation: Analytical stress will be used.
  Analytical stress will be computed.
  Analytical stress calculation: Only the upper triangle is calculated.
                                 Final output is symmetrized.
  Analytical stress calculation: scf convergence accuracy of stress not set.
                                 Analytical stress self-consistency will not be checked explicitly.
                                 Be sure to set other criteria like sc_accuracy_rho tight enough.
 * Notice: The s.c.f. convergence criterion sc_accuracy_rho was not provided.
 * We used to stop in this case, and ask the user to provide reasonable
 * scf convergence criteria. However, this led some users to employ criteria
 * that led to extremely long run times, e.g., for simple relaxation.
 * We now preset a default value for sc_accuracy_rho if it is not set.
 * You may still wish to check if this setting is too tight or too loose for your needs.
 * Based on n_atoms, FHI-aims chose sc_accuracy_rho =  0.100000E-05 .
  Force calculation: scf convergence accuracy of forces not set.
  Defaulting to 'sc_accuracy_forces not_checked'.
  Handling of forces: Unphysical translation and rotation will be removed from forces.
  No accuracy limit for integral partition fn. given. Defaulting to  0.1000E-14.
  No threshold value for u(r) in integrations given. Defaulting to  0.1000E-05.
  No occupation type (smearing scheme) given. Defaulting to Gaussian broadening, width =  0.1000E-01 eV.
  The width will be adjusted in iteration number     3 of each s.c.f. cycle (i.e., each geometry step).
  S.C.F. convergence parameters will be adjusted in iteration number     3 of the first full s.c.f. cycle only.
  No accuracy for occupation numbers given. Defaulting to  0.1000E-12.
  No threshold value for occupation numbers given. Defaulting to  0.0000E+00.
  No accuracy for fermi level given. Defaulting to  0.1000E-19.
  Maximum # of iterations to find E_F not set. Defaulting to  200.
  Preferred method for the eigenvalue solver ('KS_method') not specified in 'control.in'.
  Calling BLACS routine to test compilation state
  Since ScaLAPACK support is enabled, defaulting to ELPA (via ELSI).
  Will not use alltoall communication since running on < 1024 CPUs.
  Threshold for basis singularities not set.
  Default threshold for basis singularities:  0.1000E-04
  partition_type (choice of integration weights) for integrals was not specified.
  | Using a version of the partition function of Stratmann and coworkers ('stratmann_sparse').
  | At each grid point, the set of atoms used to build the partition table is smoothly restricted to
  | only those atoms whose free-atom density would be non-zero at that grid point.
  Partitioning for Hartree potential was not defined. Using partition_type for integrals.
  | Adjusted default value of keyword multip_moments_threshold to:       0.10000000E-11
  | This value may affect high angular momentum components of the Hartree potential in periodic systems.
  Angular momentum expansion for Kerker preconditioner not set explicitly.
  | Using default value of   0
  No explicit requirement for turning off preconditioner.
  | By default, it will be turned off when the charge convergence reaches
  | sc_accuracy_rho  =   0.100000E-05
  No special mixing parameter while Kerker preconditioner is on.
  Using default: charge_mix_param =     0.0500.
  No q(lm)/r^(l+1) cutoff set for long-range Hartree potential.
  | Using default value of  0.100000E-09 .
  | Verify using the multipole_threshold keyword.
  Defaulting to new monopole extrapolation.
  Density update method: automatic selection selected.
  Using density matrix based charge density update.
  Using density matrix based charge density update.
  Using packed matrix style: index .
  Geometry relaxation: A file "geometry.in.next_step" is written out by default after each step.
  | This file contains the geometry of the current relaxation step as well as
  | the current Hessian matrix needed to restart the relaxation algorithm.
  | If you do not want part or all of this information, use the keywords
  | "write_restart_geometry" or "hessian_to_restart_geometry" to switch the output off.
  Defaulting to use time-reversal symmetry for k-point grid.
  Charge integration errors on the 3D integration grid will be compensated
  by explicit normalization and distribution of residual charges.
  Use the "compensate_multipole_errors" flag to change this behaviour.
------------------------------------------------------------


------------------------------------------------------------
          Reading geometry description geometry.in.
------------------------------------------------------------
  Input structure read successfully.
  The structure contains        3 atoms,  and a total of        146.000 electrons.

  Input geometry:
  | Unit cell:
  |        3.78693551        0.00000000        0.00000000
  |       -1.89346776        3.27958236        0.00000000
  |        0.00000000        0.00000000      102.61213823
  | Atomic structure:
  |       Atom                x [A]            y [A]            z [A]
  |    1: Species Se           -1.26231184        2.18638824       51.30606912
  |    2: Species Se            0.63115592        1.09319412       48.69393089
  |    3: Species Pt            2.52462367        0.00000000       50.00000001

  Lattice parameters for 3D lattice (in Angstroms) :     3.786936    3.786936  102.612138
  Angle(s) between unit vectors (in degrees)       :    90.000000   90.000000  120.000000

  | The smallest distance between any two atoms is         2.54678425 AA.
  | The first atom of this pair is atom number                      1 .
  | The second atom of this pair is atom number                     3 .
  | Wigner-Seitz cell of the first atom image          -1     0     1 .
  | (The Wigner-Seitz cell of the second atom is 0 0 0  by definition.)

  Symmetry information by spglib:
  | Precision set to  0.1E-04
  | Number of Operations  : 12
  | Space group           : 164
  | International         : P-3m1
  | Schoenflies           : D3d^3

  Quantities derived from the lattice vectors:
  | Reciprocal lattice vector 1:  1.659174  0.957925  0.000000
  | Reciprocal lattice vector 2:  0.000000  1.915849  0.000000
  | Reciprocal lattice vector 3:  0.000000  0.000000  0.061232
  | Unit cell volume                               :   0.127440E+04  A^3

  Range separation radius for Ewald summation (hartree_convergence_parameter):      5.00000000 bohr.

  Fractional coordinates:
                         L1                L2                L3
       atom_frac        -0.00000000        0.66666667        0.50000000  Se
       atom_frac         0.33333333        0.33333333        0.47454357  Se
       atom_frac         0.66666667        0.00000000        0.48727179  Pt

  Number of empty states per atom not set in control.in - providing a guess from actual geometry.
  | Total number of empty states used during s.c.f. cycle:       20
  If you use a very high smearing, use empty_states (per atom!) in control.in to increase this value.

  Structure-dependent array size parameters: 
  | Maximum number of distinct radial functions  :       31
  | Maximum number of basis functions            :      133
  | Number of Kohn-Sham states (occupied + empty):       93
------------------------------------------------------------

------------------------------------------------------------
          Preparing all fixed parts of the calculation.
------------------------------------------------------------
  Determining machine precision:
    2.225073858507201E-308
  Setting up grids for atomic and cluster calculations.

  Creating wave function, potential, and density for free atoms.

  Species: Se

  List of occupied orbitals and eigenvalues:
    n    l              occ      energy [Ha]    energy [eV]
    1    0           2.0000      -466.337810    -12689.6975
    2    0           2.0000       -59.202598     -1610.9847
    3    0           2.0000        -7.847116      -213.5309
    4    0           2.0000        -0.634372       -17.2621
    2    1           6.0000       -52.061107     -1416.6548
    3    1           6.0000        -5.620941      -152.9536
    4    1           4.0000        -0.238469        -6.4891
    3    2          10.0000        -1.951949       -53.1152


  Species: Pt

  List of occupied orbitals and eigenvalues:
    n    l              occ      energy [Ha]    energy [eV]
    1    0           2.0000     -3153.103304    -85800.3064
    2    0           2.0000      -515.589489    -14029.9038
    3    0           2.0000      -119.501787     -3251.8091
    4    0           2.0000       -25.569766      -695.7887
    5    0           2.0000        -3.736651      -101.6795
    6    0           1.0000        -0.206416        -5.6169
    2    1           6.0000      -445.953190    -12135.0037
    3    1           6.0000       -99.656176     -2711.7825
    4    1           6.0000       -19.104871      -519.8700
    5    1           6.0000        -2.054483       -55.9053
    3    2          10.0000       -78.244476     -2129.1405
    4    2          10.0000       -11.276663      -306.8536
    5    2           9.0000        -0.224682        -6.1139
    4    3          14.0000        -2.581704       -70.2517

  Creating fixed part of basis set: Ionic, confined, hydrogenic.
 
  Se                   ion:

  List of free ionic orbitals and eigenvalues:
    n    l      energy [Ha]    energy [eV]
    1    0      -467.261007    -12714.8189
    2    0       -60.104893     -1635.5374
    3    0        -8.743714      -237.9286
    4    0        -1.414053       -38.4783
    2    1       -52.964156     -1441.2280
    3    1        -6.516916      -177.3343
    4    1        -0.961869       -26.1738
    3    2        -2.844511       -77.4031


  List of ionic basis orbitals and eigenvalues:
    n    l      energy [Ha]    energy [eV]    outer radius [A]
    4    0        -1.414046       -38.4782       4.083166

 
  Se                   hydrogenic:
 
  List of hydrogenic basis orbitals: 
    n    l      effective z      eigenvalue [eV]  inner max. [A]     outer max. [A]     outer radius [A]   
    3    2         4.300000       -27.9518           1.103845           1.103845           5.278265
    2    1         1.600000        -8.6828           1.326010           1.326010           5.475439
    4    3         7.200000       -44.0822           1.173422           1.173422           4.965294
 
 
  Pt                   ion:

  List of free ionic orbitals and eigenvalues:
    n    l      energy [Ha]    energy [eV]
    1    0     -3153.944388    -85823.1934
    2    0      -516.374474    -14051.2643
    3    0      -120.278274     -3272.9384
    4    0       -26.344243      -716.8633
    5    0        -4.507613      -122.6584
    2    1      -446.736765    -12156.3259
    3    1      -100.432254     -2732.9007
    4    1       -19.879176      -540.9399
    5    1        -2.820901       -76.7606
    3    2       -79.020090     -2150.2461
    4    2       -12.050716      -327.9167
    5    2        -0.950990       -25.8778
    4    3        -3.355307       -91.3026


  List of ionic basis orbitals and eigenvalues:
    n    l      energy [Ha]    energy [eV]    outer radius [A]
    6    1        -0.526730       -14.3331       5.414053
    6    0        -0.812719       -22.1152       5.155675

 
  Pt                   hydrogenic:
 
  List of hydrogenic basis orbitals: 
    n    l      effective z      eigenvalue [eV]  inner max. [A]     outer max. [A]     outer radius [A]   
    4    3         7.400000       -46.5653           1.146169           1.146169           4.909628
    5    4         9.800000       -52.2674           1.343596           1.343596           5.155675
    3    2         2.600000       -10.1361           1.823895           1.823895           5.480646
 

  Adding cutoff potential to free-atom effective potential.
  Creating atomic-like basis functions for current effective potential.

  Species Se                  :

  List of atomic basis orbitals and eigenvalues:
    n    l      energy [Ha]    energy [eV]    outer radius [A]
    1    0      -466.337810    -12689.6975       0.309561
    2    0       -59.202598     -1610.9847       0.885812
    3    0        -7.847116      -213.5309       2.355489
    4    0        -0.634372       -17.2621       5.214131
    2    1       -52.061107     -1416.6548       0.907737
    3    1        -5.620941      -152.9536       2.694529
    4    1        -0.238469        -6.4891       5.408909
    3    2        -1.951949       -53.1152       4.083166


  Species Pt                  :

  List of atomic basis orbitals and eigenvalues:
    n    l      energy [Ha]    energy [eV]    outer radius [A]
    1    0     -3153.103304    -85800.3064       0.122365
    2    0      -515.589489    -14029.9038       0.321431
    3    0      -119.501787     -3251.8091       0.669333
    4    0       -25.569766      -695.7887       1.393787
    5    0        -3.736651      -101.6795       3.402290
    6    0        -0.206416        -5.6169       5.414053
    2    1      -445.953190    -12135.0037       0.333438
    3    1       -99.656176     -2711.7825       0.720273
    4    1       -19.104871      -519.8700       1.575030
    5    1        -2.054483       -55.9053       4.398103
    3    2       -78.244476     -2129.1405       0.765673
    4    2       -11.276663      -306.8536       1.915300
    5    2        -0.224682        -6.1139       5.348269
    4    3        -2.581704       -70.2517       3.402290

  Assembling full basis from fixed parts.
  | Species Se :   atomic orbital   1 s accepted.
  | Species Se :   atomic orbital   2 s accepted.
  | Species Se :   atomic orbital   3 s accepted.
  | Species Se :    ionic orbital   4 s accepted.
  | Species Se :   atomic orbital   4 s accepted.
  | Species Se :   atomic orbital   2 p accepted.
  | Species Se :   atomic orbital   3 p accepted.
  | Species Se :   atomic orbital   4 p accepted.
  | Species Se :    hydro orbital   2 p accepted.
  | Species Se :   atomic orbital   3 d accepted.
  | Species Se :    hydro orbital   3 d accepted.
  | Species Se :    hydro orbital   4 f accepted.
  | Species Pt :   atomic orbital   1 s accepted.
  | Species Pt :   atomic orbital   2 s accepted.
  | Species Pt :   atomic orbital   3 s accepted.
  | Species Pt :   atomic orbital   4 s accepted.
  | Species Pt :   atomic orbital   5 s accepted.
  | Species Pt :    ionic orbital   6 s accepted.
  | Species Pt :   atomic orbital   6 s accepted.
  | Species Pt :   atomic orbital   2 p accepted.
  | Species Pt :   atomic orbital   3 p accepted.
  | Species Pt :   atomic orbital   4 p accepted.
  | Species Pt :   atomic orbital   5 p accepted.
  | Species Pt :    ionic orbital   6 p accepted.
  | Species Pt :   atomic orbital   3 d accepted.
  | Species Pt :   atomic orbital   4 d accepted.
  | Species Pt :   atomic orbital   5 d accepted.
  | Species Pt :    hydro orbital   3 d accepted.
  | Species Pt :   atomic orbital   4 f accepted.
  | Species Pt :    hydro orbital   4 f accepted.
  | Species Pt :    hydro orbital   5 g accepted.
 
  Basis size parameters after reduction:
  | Total number of radial functions:       31
  | Total number of basis functions :      133
 
  Per-task memory consumption for arrays in subroutine allocate_ext:
  |          11.805792MB.
  Testing on-site integration grid accuracy.
  |  Species  Function  <phi|h_atom|phi> (log., in eV)  <phi|h_atom|phi> (rad., in eV)
           1        1             -12689.6974611609             -12689.6967666984
           1        2              -1610.9846578580              -1610.9846472470
           1        3               -213.5308789869               -213.5308777267
           1        4                -17.0464428502                -17.0464426496
           1        5                  6.7356859379                  6.7356842047
           1        6              -1416.6548010133              -1416.6548002108
           1        7               -152.9535734377               -152.9535727493
           1        8                 -6.4896265677                 -6.4896303794
           1        9                  5.2703037283                  5.2701679583
           1       10                -53.1152220964                -53.1152219035
           1       11                  7.6186674138                  7.6186665630
           1       12                 23.1072799052                 23.1072803137
           2       13             -85800.3063919402             -85800.2856196525
           2       14             -14029.9038190300             -14029.9034024833
           2       15              -3251.8090796931              -3251.8090493723
           2       16               -695.7887467643               -695.7887380850
           2       17               -101.6794541340               -101.6794523393
           2       18                 -5.0775855771                 -5.0775852328
           2       19                  4.7711468015                  4.7712019679
           2       20             -12135.0037192377             -12135.0037104521
           2       21              -2711.7825232731              -2711.7825171064
           2       22               -519.8699987964               -519.8699936816
           2       23                -55.9053342208                -55.9053330056
           2       24                  0.5776141100                  0.5776162186
           2       25              -2129.1405232679              -2129.1405210333
           2       26               -306.8536046287               -306.8536019169
           2       27                 -6.1140333562                 -6.1140328165
           2       28                  6.1273756151                  6.1274132672
           2       29                -70.2517499694                -70.2517493419
           2       30                 21.2263775581                 21.2263774791
           2       31                 35.7069304608                 35.7069304867

  Preparing densities etc. for the partition functions (integrals / Hartree potential).
{    3,    1}:  On entry to 
{    3,    0}:  On entry to 
DESCINIT parameter number    9 had an illegal value 
DESCINIT parameter number    9 had an illegal value 
{    3,    3}:  On entry to 
DESCINIT parameter number    9 had an illegal value 
{    3,    4}:  On entry to 
DESCINIT parameter number    9 had an illegal value 
{    3,    5}:  On entry to 
DESCINIT parameter number    9 had an illegal value 

  Preparations completed.
  max(cpu_time)          :      0.637 s.
  Wall clock time (cpu1) :      0.692 s.
------------------------------------------------------------
{    3,    2}:  On entry to 
DESCINIT parameter number    9 had an illegal value 

------------------------------------------------------------
          Begin self-consistency loop: Initialization.

          Date     :  20200402, Time     :  184554.011
------------------------------------------------------------

  Initializing index lists of integration centers etc. from given atomic structure:
  Mapping all atomic coordinates to central unit cell.

  Initializing the k-points
  Using symmetry for reducing the k-points
  | k-points reduced from:       16 to       10
  | Number of k-points                             :        10
  The eigenvectors in the calculations are COMPLEX.
  | Number of basis functions in the Hamiltonian integrals :      2826
  | Number of basis functions in a single unit cell        :       133
  | Number of centers in hartree potential         :       278
  | Number of centers in hartree multipole         :       141
  | Number of centers in electron density summation:       117
  | Number of centers in basis integrals           :       177
  | Number of centers in integrals                 :       108
  | Number of centers in hamiltonian               :       117
  | Consuming         10 KiB for k_phase.
  | Number of super-cells (origin) [n_cells]                     :         507
  | Number of super-cells (after PM_index) [n_cells]             :          65
  | Number of super-cells in hamiltonian [n_cells_in_hamiltonian]:          44
  | Size of matrix packed + index [n_hamiltonian_matrix_size] :      152772

  Initializing relaxation algorithms.
  | Estimated reciprocal-space cutoff momentum G_max:         1.90186217 bohr^-1 .
  | Reciprocal lattice points for long-range Hartree potential:     980
  Using simple linear distribution as default method for k-point parallelism.
  * Using 24 tasks for Scalapack Eigenvalue solver.
  Detailed listing of tasks and assigned k-points:
   Task     0 k-point     1 on taurusi6503.taurus.hrsk.tu-dresden.de
   Task     1 k-point     1 on taurusi6503.taurus.hrsk.tu-dresden.de
   Task     2 k-point     1 on taurusi6503.taurus.hrsk.tu-dresden.de
   Task     3 k-point     2 on taurusi6503.taurus.hrsk.tu-dresden.de
   Task     4 k-point     2 on taurusi6503.taurus.hrsk.tu-dresden.de
   Task     5 k-point     3 on taurusi6503.taurus.hrsk.tu-dresden.de
   Task     6 k-point     3 on taurusi6503.taurus.hrsk.tu-dresden.de
   Task     7 k-point     3 on taurusi6503.taurus.hrsk.tu-dresden.de
   Task     8 k-point     4 on taurusi6503.taurus.hrsk.tu-dresden.de
   Task     9 k-point     4 on taurusi6503.taurus.hrsk.tu-dresden.de
   Task    10 k-point     5 on taurusi6503.taurus.hrsk.tu-dresden.de
   Task    11 k-point     5 on taurusi6503.taurus.hrsk.tu-dresden.de
   Task    12 k-point     6 on taurusi6503.taurus.hrsk.tu-dresden.de
   Task    13 k-point     6 on taurusi6503.taurus.hrsk.tu-dresden.de
   Task    14 k-point     6 on taurusi6503.taurus.hrsk.tu-dresden.de
   Task    15 k-point     7 on taurusi6503.taurus.hrsk.tu-dresden.de
   Task    16 k-point     7 on taurusi6503.taurus.hrsk.tu-dresden.de
   Task    17 k-point     8 on taurusi6503.taurus.hrsk.tu-dresden.de
   Task    18 k-point     8 on taurusi6503.taurus.hrsk.tu-dresden.de
   Task    19 k-point     8 on taurusi6503.taurus.hrsk.tu-dresden.de
   Task    20 k-point     9 on taurusi6503.taurus.hrsk.tu-dresden.de
   Task    21 k-point     9 on taurusi6503.taurus.hrsk.tu-dresden.de
   Task    22 k-point    10 on taurusi6503.taurus.hrsk.tu-dresden.de
   Task    23 k-point    10 on taurusi6503.taurus.hrsk.tu-dresden.de
  K-point:     1 Tasks:     3 split into      3 X      1 BLACS grid
  Calculating block size based on n_basis =          133  max_nprow =            3  max_npcol =            1
  ScaLAPACK block size set to:           16
  Allocating        0.097 MB for ovlp_complex
  Allocating        0.097 MB for ham_complex
  Allocating        0.097 MB for eigenvec_complex
  Required Scalapack workspace - INTEGER:            1  REAL:             1  COMPLEX:            1
  Partitioning the integration grid into batches with parallel hashing+maxmin method.
  | Number of batches:     1305
  | Maximal batch size:     169
  | Minimal batch size:      69
  | Average batch size:      76.268
  | Standard deviation of batch sizes:      13.152

  Integration load balanced across    24 MPI tasks.
  Work distribution over tasks is as follows:
  Task     0 has       4161 integration points.
  Task     1 has       4118 integration points.
  Task     2 has       4135 integration points.
  Task     3 has       4188 integration points.
  Task     4 has       4161 integration points.
  Task     5 has       4163 integration points.
  Task     6 has       4168 integration points.
  Task     7 has       4163 integration points.
  Task     8 has       4163 integration points.
  Task     9 has       4122 integration points.
  Task    10 has       4135 integration points.
  Task    11 has       4131 integration points.
  Task    12 has       4191 integration points.
  Task    13 has       4133 integration points.
  Task    14 has       4188 integration points.
  Task    15 has       4118 integration points.
  Task    16 has       4131 integration points.
  Task    17 has       4133 integration points.
  Task    18 has       4170 integration points.
  Task    19 has       4118 integration points.
  Task    20 has       4132 integration points.
  Task    21 has       4118 integration points.
  Task    22 has       4130 integration points.
  Task    23 has       4160 integration points.
  Initializing partition tables, free-atom densities, potentials, etc. across the integration grid (initialize_grid_storage).
  | initialize_grid_storage: Actual outermost partition radius vs. multipole_radius_free
  | (-- VB: in principle, multipole_radius_free should be larger, hence this output)
  | Species        1: Confinement radius =              6.000000000000000 AA, multipole_radius_free =              6.037996416842453 AA.
  | Species        1: outer_partition_radius set to              6.037996416842453 AA .
  | Species        2: Confinement radius =              6.000000000000000 AA, multipole_radius_free =              6.043738901464199 AA.
  | Species        2: outer_partition_radius set to              6.043738901464199 AA .
  | The sparse table of interatomic distances needs        180.57 kbyte instead of       250.63 kbyte of memory.
  | Net number of integration points:    99530
  | of which are non-zero points    :    86758
  | Numerical average free-atom electrostatic potential    :     -0.94761839 eV
  Renormalizing the initial density to the exact electron count on the 3D integration grid.
  | Initial density: Formal number of electrons (from input files) :     146.0000000000
  | Integrated number of electrons on 3D grid     :     146.0000589397
  | Charge integration error                      :       0.0000589397
  | Normalization factor for density and gradient :       0.9999995963
  Renormalizing the free-atom superposition density to the exact electron count on the 3D integration grid.
  | Formal number of electrons (from input files) :     146.0000000000
  | Integrated number of electrons on 3D grid     :     146.0000589397
  | Charge integration error                      :       0.0000589397
  | Normalization factor for density and gradient :       0.9999995963
  Obtaining max. number of non-zero basis functions in each batch (get_n_compute_maxes).
  | Maximal number of non-zero basis functions:      716 in task     0
  | Maximal number of non-zero basis functions:      705 in task     1
  | Maximal number of non-zero basis functions:      701 in task     2
  | Maximal number of non-zero basis functions:      707 in task     3
  | Maximal number of non-zero basis functions:      714 in task     4
  | Maximal number of non-zero basis functions:      698 in task     5
  | Maximal number of non-zero basis functions:      708 in task     6
  | Maximal number of non-zero basis functions:      715 in task     7
  | Maximal number of non-zero basis functions:      728 in task     8
  | Maximal number of non-zero basis functions:      714 in task     9
  | Maximal number of non-zero basis functions:      705 in task    10
  | Maximal number of non-zero basis functions:      700 in task    11
  | Maximal number of non-zero basis functions:      710 in task    12
  | Maximal number of non-zero basis functions:      697 in task    13
  | Maximal number of non-zero basis functions:      701 in task    14
  | Maximal number of non-zero basis functions:      700 in task    15
  | Maximal number of non-zero basis functions:      708 in task    16
  | Maximal number of non-zero basis functions:      698 in task    17
  | Maximal number of non-zero basis functions:      709 in task    18
  | Maximal number of non-zero basis functions:      694 in task    19
  | Maximal number of non-zero basis functions:      713 in task    20
  | Maximal number of non-zero basis functions:      707 in task    21
  | Maximal number of non-zero basis functions:      709 in task    22
  | Maximal number of non-zero basis functions:      709 in task    23
  Allocating        0.189 MB for KS_eigenvector_complex
  Integrating Hamiltonian matrix: batch-based integration.
  Time summed over all CPUs for integration: real work        8.037 s, elapsed        8.180 s
  Integrating overlap matrix.
  Time summed over all CPUs for integration: real work        5.347 s, elapsed        5.453 s
  Decreasing sparse matrix size:
  | Tolerance:  0.1000E-12
  Hamiltonian matrix
  | Array has   130998 nonzero elements out of   152772 elements
  | Sparsity factor is 0.143
  Overlap matrix
  | Array has   119339 nonzero elements out of   152772 elements
  | Sparsity factor is 0.219
  New size of hamiltonian matrix:      131584
  Deallocating overlap matrix.

  Updating Kohn-Sham eigenvalues and eigenvectors using ELSI and the ELPA eigensolver.
  Singularity check in k-point 1 (analysis for other k-points may follow below):
  Overlap matrix is not singular
  | Lowest and highest eigenvalues :  0.4642E-02,  0.6854E+01
  Finished singularity check of overlap matrix
  | Time :     0.014 s
  Starting ELPA eigensolver
  Finished Cholesky decomposition
  | Time :     0.014 s
  Finished transformation to standard eigenproblem
  | Time :     0.001 s
  Finished solving standard eigenproblem
  | Time :     0.005 s
  Finished back-transformation of eigenvectors
  | Time :     0.001 s

  Obtaining occupation numbers and chemical potential using ELSI.
  | Chemical potential (Fermi level):    -5.30085949 eV
  Writing Kohn-Sham eigenvalues.
  K-point:       1 at    0.000000    0.000000    0.000000 (in units of recip. lattice)

  State    Occupation    Eigenvalue [Ha]    Eigenvalue [eV]
      1       2.00000       -3153.118053       -85800.70771
      2       2.00000        -515.602057       -14030.24582
      3       2.00000        -466.345911       -12689.91789
      4       2.00000        -466.345911       -12689.91789
      5       2.00000        -445.965466       -12135.33777
      6       2.00000        -445.965465       -12135.33773
      7       2.00000        -445.965460       -12135.33761
      8       2.00000        -119.514322        -3252.15017
      9       2.00000         -99.668668        -2712.12244
     10       2.00000         -99.668667        -2712.12243
     11       2.00000         -99.668626        -2712.12130
     12       2.00000         -78.256931        -2129.47943
     13       2.00000         -78.256931        -2129.47943
     14       2.00000         -78.256906        -2129.47876
     15       2.00000         -78.256906        -2129.47876
     16       2.00000         -78.256897        -2129.47852
     17       2.00000         -59.211069        -1611.21518
     18       2.00000         -59.211069        -1611.21518
     19       2.00000         -52.069572        -1416.88514
     20       2.00000         -52.069572        -1416.88514
     21       2.00000         -52.069572        -1416.88513
     22       2.00000         -52.069571        -1416.88513
     23       2.00000         -52.069552        -1416.88461
     24       2.00000         -52.069552        -1416.88461
     25       2.00000         -25.583144         -696.15277
     26       2.00000         -19.118484         -520.24042
     27       2.00000         -19.118484         -520.24042
     28       2.00000         -19.118244         -520.23390
     29       2.00000         -11.290535         -307.23109
     30       2.00000         -11.290535         -307.23109
     31       2.00000         -11.290342         -307.22584
     32       2.00000         -11.290342         -307.22584
     33       2.00000         -11.290246         -307.22321
     34       2.00000          -7.856937         -213.79812
     35       2.00000          -7.856937         -213.79812
     36       2.00000          -5.630988         -153.22698
     37       2.00000          -5.630988         -153.22698
     38       2.00000          -5.630988         -153.22698
     39       2.00000          -5.630988         -153.22698
     40       2.00000          -5.630737         -153.22016
     41       2.00000          -5.630737         -153.22016
     42       2.00000          -3.756099         -102.20867
     43       2.00000          -2.596184          -70.64576
     44       2.00000          -2.596147          -70.64475
     45       2.00000          -2.596008          -70.64097
     46       2.00000          -2.596008          -70.64097
     47       2.00000          -2.595817          -70.63579
     48       2.00000          -2.595817          -70.63578
     49       2.00000          -2.595739          -70.63366
     50       2.00000          -2.078552          -56.56029
     51       2.00000          -2.078552          -56.56029
     52       2.00000          -2.076401          -56.50175
     53       2.00000          -1.962686          -53.40741
     54       2.00000          -1.962686          -53.40741
     55       2.00000          -1.962569          -53.40421
     56       2.00000          -1.962569          -53.40421
     57       2.00000          -1.962396          -53.39951
     58       2.00000          -1.962396          -53.39951
     59       2.00000          -1.962318          -53.39740
     60       2.00000          -1.962318          -53.39740
     61       2.00000          -1.962213          -53.39453
     62       2.00000          -1.962194          -53.39403
     63       2.00000          -0.728371          -19.81999
     64       2.00000          -0.667627          -18.16705
     65       2.00000          -0.387702          -10.54992
     66       2.00000          -0.374597          -10.19331
     67       2.00000          -0.374597          -10.19331
     68       2.00000          -0.275844           -7.50609
     69       2.00000          -0.275843           -7.50608
     70       2.00000          -0.242052           -6.58658
     71       2.00000          -0.231149           -6.28987
     72       2.00000          -0.223347           -6.07759
     73       2.00000          -0.223347           -6.07758
     74       0.00000          -0.096188           -2.61741
     75       0.00000          -0.096188           -2.61741
     76       0.00000          -0.035321           -0.96114
     77       0.00000          -0.005112           -0.13910
     78       0.00000           0.078317            2.13112
     79       0.00000           0.100180            2.72602
     80       0.00000           0.100181            2.72606
     81       0.00000           0.120279            3.27295
     82       0.00000           0.254932            6.93706
     83       0.00000           0.254934            6.93710
     84       0.00000           0.276587            7.52633
     85       0.00000           0.349242            9.50336
     86       0.00000           0.352100            9.58112
     87       0.00000           0.352100            9.58113
     88       0.00000           0.355530            9.67446
     89       0.00000           0.371116           10.09858
     90       0.00000           0.371118           10.09863
     91       0.00000           0.559778           15.23235
     92       0.00000           0.559779           15.23237
     93       0.00000           0.592071           16.11108

  What follows are estimated values for band gap, HOMO, LUMO, etc.
  | They are estimated on a discrete k-point grid and not necessarily exact.
  | For converged numbers, create a DOS and/or band structure plot on a denser k-grid.

  Highest occupied state (VBM) at     -5.70462324 eV (relative to internal zero)
  | Occupation number:      2.00000000
  | K-point:      10 at    0.750000    0.250000    0.000000 (in units of recip. lattice)

  Lowest unoccupied state (CBM) at    -4.02984550 eV (relative to internal zero)
  | Occupation number:      0.00000000
  | K-point:       4 at    0.250000    0.000000    0.000000 (in units of recip. lattice)

  ESTIMATED overall HOMO-LUMO gap:      1.67477774 eV between HOMO at k-point 10 and LUMO at k-point 4
  | This appears to be an indirect band gap.
  | Smallest direct gap :      1.67477776 eV for k_point 10 at    0.250000    0.000000    0.000000 (in units of recip. lattice)
  The gap value is above 0.2 eV. Unless you are using a very sparse k-point grid,
  this system is most likely an insulator or a semiconductor.
  Calculating total energy contributions from superposition of free atom densities.

  Total energy components:
  | Sum of eigenvalues            :      -14841.44557056 Ha     -403856.28195624 eV
  | XC energy correction          :        -536.14110769 Ha      -14589.14182753 eV
  | XC potential correction       :         700.09169156 Ha       19050.46420420 eV
  | Free-atom electrostatic energy:       -9260.56432391 Ha     -251992.77650497 eV
  | Hartree energy correction     :           0.00000000 Ha           0.00000000 eV
  | vdW energy correction         :           0.00000000 Ha           0.00000000 eV
  | Entropy correction            :           0.00000000 Ha           0.00000000 eV
  | ---------------------------
  | Total energy                  :      -23938.05931060 Ha     -651387.73608455 eV
  | Total energy, T -> 0          :      -23938.05931060 Ha     -651387.73608455 eV  <-- do not rely on this value for anything but (periodic) metals
  | Electronic free energy        :      -23938.05931060 Ha     -651387.73608455 eV

  Derived energy quantities:
  | Kinetic energy                :       26293.08326621 Ha      715471.19844722 eV
  | Electrostatic energy          :      -49695.00146912 Ha    -1352269.79270424 eV
  | Energy correction for multipole
  | error in Hartree potential    :           0.00000000 Ha           0.00000000 eV
  | Sum of eigenvalues per atom                           :     -134618.76065208 eV
  | Total energy (T->0) per atom                          :     -217129.24536152 eV  <-- do not rely on this value for anything but (periodic) metals
  | Electronic free energy per atom                       :     -217129.24536152 eV
  Initialize hartree_potential_storage
  Max. number of atoms included in rho_multipole:            3

  End scf initialization - timings             :  max(cpu_time)    wall_clock(cpu1)
  | Time for scf. initialization               :        2.108 s           2.169 s
  | Boundary condition initialization          :        0.904 s           0.907 s
  | Relaxation initialization                  :        0.003 s           0.007 s
  | Integration                                :        0.572 s           0.579 s
  | Solution of K.-S. eqns.                    :        0.030 s           0.051 s
  | Grid partitioning                          :        0.436 s           0.436 s
  | Preloading free-atom quantities on grid    :        0.030 s           0.030 s
  | Free-atom superposition energy             :        0.016 s           0.016 s
  | Total energy evaluation                    :        0.000 s           0.001 s

  Partial memory accounting:
  | Current value for overall tracked memory usage:
  |   Minimum:        1.930 MB (on task  2)
  |   Maximum:        2.125 MB (on task  3)
  |   Average:        2.042 MB
  | Peak value for overall tracked memory usage:
  |   Minimum:        9.713 MB (on task 19 after allocating wave)
  |   Maximum:       10.409 MB (on task  8 after allocating wave)
  |   Average:       10.014 MB
  | Largest tracked array allocation so far:
  |   Minimum:        3.675 MB (hamiltonian_shell on task 19)
  |   Maximum:        4.043 MB (hamiltonian_shell on task  8)
  |   Average:        3.813 MB
  Note:  These values currently only include a subset of arrays which are explicitly tracked.
  The "true" memory usage will be greater.
------------------------------------------------------------

------------------------------------------------------------
          Begin self-consistency iteration #    1

  Date     :  20200402, Time     :  184556.182
------------------------------------------------------------
  Evaluating new KS density using the density matrix
  Evaluating density matrix
  Time summed over all CPUs for getting density from density matrix: real work       14.623 s, elapsed       15.060 s
  Integration grid: deviation in total charge (<rho> - N_e) =   0.000000E+00
  Pulay mixing of updated and previous charge densities.
  Renormalizing the density to the exact electron count on the 3D integration grid.
  | Formal number of electrons (from input files) :     146.0000000000
  | Integrated number of electrons on 3D grid     :     145.9998196356
  | Charge integration error                      :      -0.0001803644
  | Normalization factor for density and gradient :       1.0000012354

  Evaluating partitioned Hartree potential by multipole expansion.
  | Original multipole sum: apparent total charge =   0.264118E-13
  | Sum of charges compensated after spline to logarithmic grids =   0.381117E-07
  | Analytical far-field extrapolation by fixed multipoles:
  | Hartree multipole sum: apparent total charge =   0.263841E-13
  Summing up the Hartree potential.
  Time summed over all CPUs for potential: real work        5.103 s, elapsed        5.274 s
  | RMS charge density error from multipole expansion :   0.254562E-03
  | Average real-space part of the electrostatic potential :     -0.00024381 eV

  Integrating Hamiltonian matrix: batch-based integration.
  Time summed over all CPUs for integration: real work        7.804 s, elapsed        7.935 s

  Updating Kohn-Sham eigenvalues and eigenvectors using ELSI and the ELPA eigensolver.
  Starting ELPA eigensolver
  Finished transformation to standard eigenproblem
  | Time :     0.001 s
  Finished solving standard eigenproblem
  | Time :     0.005 s
  Finished back-transformation of eigenvectors
  | Time :     0.001 s

  Obtaining occupation numbers and chemical potential using ELSI.
  | Chemical potential (Fermi level):    -5.33756421 eV
  Writing Kohn-Sham eigenvalues.
  K-point:       1 at    0.000000    0.000000    0.000000 (in units of recip. lattice)

  State    Occupation    Eigenvalue [Ha]    Eigenvalue [eV]
      1       2.00000       -3153.136833       -85801.21874
      2       2.00000        -515.620849       -14030.75718
      3       2.00000        -466.343913       -12689.86352
      4       2.00000        -466.343913       -12689.86352
      5       2.00000        -445.984304       -12135.85036
      6       2.00000        -445.984302       -12135.85033
      7       2.00000        -445.984288       -12135.84994
      8       2.00000        -119.531958        -3252.63006
      9       2.00000         -99.686299        -2712.60221
     10       2.00000         -99.686298        -2712.60219
     11       2.00000         -99.686242        -2712.60067
     12       2.00000         -78.274781        -2129.96516
     13       2.00000         -78.274781        -2129.96516
     14       2.00000         -78.274705        -2129.96308
     15       2.00000         -78.274704        -2129.96308
     16       2.00000         -78.274677        -2129.96232
     17       2.00000         -59.209424        -1611.17041
     18       2.00000         -59.209424        -1611.17041
     19       2.00000         -52.067890        -1416.83939
     20       2.00000         -52.067890        -1416.83939
     21       2.00000         -52.067890        -1416.83938
     22       2.00000         -52.067890        -1416.83938
     23       2.00000         -52.067836        -1416.83791
     24       2.00000         -52.067836        -1416.83791
     25       2.00000         -25.599148         -696.58826
     26       2.00000         -19.134350         -520.67214
     27       2.00000         -19.134349         -520.67214
     28       2.00000         -19.134074         -520.66464
     29       2.00000         -11.306379         -307.66222
     30       2.00000         -11.306379         -307.66222
     31       2.00000         -11.306016         -307.65234
     32       2.00000         -11.306016         -307.65234
     33       2.00000         -11.305845         -307.64769
     34       2.00000          -7.855712         -213.76480
     35       2.00000          -7.855712         -213.76480
     36       2.00000          -5.629805         -153.19478
     37       2.00000          -5.629805         -153.19478
     38       2.00000          -5.629805         -153.19478
     39       2.00000          -5.629805         -153.19478
     40       2.00000          -5.629437         -153.18477
     41       2.00000          -5.629437         -153.18476
     42       2.00000          -3.768979         -102.55913
     43       2.00000          -2.611723          -71.06860
     44       2.00000          -2.611580          -71.06470
     45       2.00000          -2.611564          -71.06426
     46       2.00000          -2.611564          -71.06426
     47       2.00000          -2.611215          -71.05478
     48       2.00000          -2.611215          -71.05478
     49       2.00000          -2.610983          -71.04847
     50       2.00000          -2.090283          -56.87951
     51       2.00000          -2.090283          -56.87951
     52       2.00000          -2.088063          -56.81908
     53       2.00000          -1.961525          -53.37582
     54       2.00000          -1.961525          -53.37582
     55       2.00000          -1.961427          -53.37315
     56       2.00000          -1.961427          -53.37315
     57       2.00000          -1.961183          -53.36651
     58       2.00000          -1.961183          -53.36651
     59       2.00000          -1.961099          -53.36422
     60       2.00000          -1.961099          -53.36421
     61       2.00000          -1.960955          -53.36029
     62       2.00000          -1.960938          -53.35983
     63       2.00000          -0.728943          -19.83556
     64       2.00000          -0.667500          -18.16360
     65       2.00000          -0.389632          -10.60243
     66       2.00000          -0.379227          -10.31930
     67       2.00000          -0.379227          -10.31930
     68       2.00000          -0.283418           -7.71220
     69       2.00000          -0.283418           -7.71219
     70       2.00000          -0.241967           -6.58426
     71       2.00000          -0.236960           -6.44800
     72       2.00000          -0.223694           -6.08704
     73       2.00000          -0.223694           -6.08703
     74       0.00000          -0.099781           -2.71517
     75       0.00000          -0.099781           -2.71517
     76       0.00000          -0.036546           -0.99448
     77       0.00000          -0.006470           -0.17607
     78       0.00000           0.078476            2.13543
     79       0.00000           0.097937            2.66500
     80       0.00000           0.097938            2.66504
     81       0.00000           0.118781            3.23219
     82       0.00000           0.252583            6.87314
     83       0.00000           0.252585            6.87318
     84       0.00000           0.275191            7.48832
     85       0.00000           0.347291            9.45027
     86       0.00000           0.351549            9.56613
     87       0.00000           0.351549            9.56614
     88       0.00000           0.353384            9.61607
     89       0.00000           0.369311           10.04945
     90       0.00000           0.369313           10.04950
     91       0.00000           0.558315           15.19253
     92       0.00000           0.558316           15.19256
     93       0.00000           0.590757           16.07531

  What follows are estimated values for band gap, HOMO, LUMO, etc.
  | They are estimated on a discrete k-point grid and not necessarily exact.
  | For converged numbers, create a DOS and/or band structure plot on a denser k-grid.

  Highest occupied state (VBM) at     -5.84151883 eV (relative to internal zero)
  | Occupation number:      2.00000000
  | K-point:      10 at    0.750000    0.250000    0.000000 (in units of recip. lattice)

  Lowest unoccupied state (CBM) at    -4.14663352 eV (relative to internal zero)
  | Occupation number:      0.00000000
  | K-point:       4 at    0.250000    0.000000    0.000000 (in units of recip. lattice)

  ESTIMATED overall HOMO-LUMO gap:      1.69488530 eV between HOMO at k-point 10 and LUMO at k-point 4
  | This appears to be an indirect band gap.
  | Smallest direct gap :      1.69488532 eV for k_point 10 at    0.250000    0.000000    0.000000 (in units of recip. lattice)
  The gap value is above 0.2 eV. Unless you are using a very sparse k-point grid,
  this system is most likely an insulator or a semiconductor.

  Total energy components:
  | Sum of eigenvalues            :      -14842.53963796 Ha     -403886.05304514 eV
  | XC energy correction          :        -536.12264204 Ha      -14588.63935175 eV
  | XC potential correction       :         700.06752847 Ha       19049.80669321 eV
  | Free-atom electrostatic energy:       -9260.56432391 Ha     -251992.77650497 eV
  | Hartree energy correction     :           1.10789781 Ha          30.14743323 eV
  | vdW energy correction         :           0.00000000 Ha           0.00000000 eV
  | Entropy correction            :           0.00000000 Ha           0.00000000 eV
  | ---------------------------
  | Total energy                  :      -23938.05117764 Ha     -651387.51477543 eV
  | Total energy, T -> 0          :      -23938.05117764 Ha     -651387.51477543 eV  <-- do not rely on this value for anything but (periodic) metals
  | Electronic free energy        :      -23938.05117764 Ha     -651387.51477543 eV

  Derived energy quantities:
  | Kinetic energy                :       26292.87052549 Ha      715465.40947788 eV
  | Electrostatic energy          :      -49694.79906109 Ha    -1352264.28490156 eV
  | Energy correction for multipole
  | error in Hartree potential    :          -0.00008713 Ha          -0.00237105 eV
  | Sum of eigenvalues per atom                           :     -134628.68434838 eV
  | Total energy (T->0) per atom                          :     -217129.17159181 eV  <-- do not rely on this value for anything but (periodic) metals
  | Electronic free energy per atom                       :     -217129.17159181 eV

  Self-consistency convergence accuracy:
  | Change of charge density      :  0.2859E+00
  | Change of sum of eigenvalues  : -0.2977E+02 eV
  | Change of total energy        :  0.2213E+00 eV

  End self-consistency iteration #     1       :  max(cpu_time)    wall_clock(cpu1)
  | Time for this iteration                    :        1.261 s           1.293 s
  | Charge density update                      :        0.634 s           0.665 s
  | Density mixing & preconditioning           :        0.047 s           0.047 s
  | Hartree multipole update                   :        0.002 s           0.002 s
  | Hartree multipole summation                :        0.234 s           0.235 s
  | Integration                                :        0.335 s           0.334 s
  | Solution of K.-S. eqns.                    :        0.008 s           0.009 s
  | Total energy evaluation                    :        0.000 s           0.000 s

  Partial memory accounting:
  | Current value for overall tracked memory usage:
  |   Minimum:        1.930 MB (on task  2)
  |   Maximum:        2.125 MB (on task  3)
  |   Average:        2.042 MB
  | Peak value for overall tracked memory usage:
  |   Minimum:       10.974 MB (on task 19 after allocating gradient_basis_wave)
  |   Maximum:       11.800 MB (on task  8 after allocating gradient_basis_wave)
  |   Average:       11.324 MB
  | Largest tracked array allocation so far:
  |   Minimum:        3.675 MB (hamiltonian_shell on task 19)
  |   Maximum:        4.043 MB (hamiltonian_shell on task  8)
  |   Average:        3.813 MB
  Note:  These values currently only include a subset of arrays which are explicitly tracked.
  The "true" memory usage will be greater.
------------------------------------------------------------

------------------------------------------------------------
          Begin self-consistency iteration #    2

  Date     :  20200402, Time     :  184557.478
------------------------------------------------------------
  Evaluating new KS density using the density matrix
  Evaluating density matrix
  Time summed over all CPUs for getting density from density matrix: real work       14.550 s, elapsed       14.972 s
  Integration grid: deviation in total charge (<rho> - N_e) =   0.000000E+00
  Pulay mixing of updated and previous charge densities.
  Renormalizing the density to the exact electron count on the 3D integration grid.
  | Formal number of electrons (from input files) :     146.0000000000
  | Integrated number of electrons on 3D grid     :     145.9985585544
  | Charge integration error                      :      -0.0014414456
  | Normalization factor for density and gradient :       1.0000098730

  Evaluating partitioned Hartree potential by multipole expansion.
  | Original multipole sum: apparent total charge =  -0.238106E-13
  | Sum of charges compensated after spline to logarithmic grids =   0.354694E-07
  | Analytical far-field extrapolation by fixed multipoles:
  | Hartree multipole sum: apparent total charge =  -0.236876E-13
  Summing up the Hartree potential.
  Time summed over all CPUs for potential: real work        5.602 s, elapsed        5.768 s
  | RMS charge density error from multipole expansion :   0.208068E-02
  | Average real-space part of the electrostatic potential :     -0.00171912 eV

  Integrating Hamiltonian matrix: batch-based integration.
  Time summed over all CPUs for integration: real work        7.796 s, elapsed        7.953 s

  Updating Kohn-Sham eigenvalues and eigenvectors using ELSI and the ELPA eigensolver.
  Starting ELPA eigensolver
  Finished transformation to standard eigenproblem
  | Time :     0.001 s
  Finished solving standard eigenproblem
  | Time :     0.005 s
  Finished back-transformation of eigenvectors
  | Time :     0.001 s

  Obtaining occupation numbers and chemical potential using ELSI.
  | Chemical potential (Fermi level):    -5.52517866 eV
  What follows are estimated values for band gap, HOMO, LUMO, etc.
  | They are estimated on a discrete k-point grid and not necessarily exact.
  | For converged numbers, create a DOS and/or band structure plot on a denser k-grid.

  Highest occupied state (VBM) at     -6.10193909 eV (relative to internal zero)
  | Occupation number:      2.00000000
  | K-point:       1 at    0.000000    0.000000    0.000000 (in units of recip. lattice)

  Lowest unoccupied state (CBM) at    -4.76772697 eV (relative to internal zero)
  | Occupation number:      0.00000000
  | K-point:      10 at    0.750000    0.250000    0.000000 (in units of recip. lattice)

  ESTIMATED overall HOMO-LUMO gap:      1.33421212 eV between HOMO at k-point 1 and LUMO at k-point 10
  | This appears to be an indirect band gap.
  | Smallest direct gap :      1.42149313 eV for k_point 10 at    0.750000    0.250000    0.000000 (in units of recip. lattice)
  The gap value is above 0.2 eV. Unless you are using a very sparse k-point grid,
  this system is most likely an insulator or a semiconductor.

  Total energy components:
  | Sum of eigenvalues            :      -14849.35197004 Ha     -404071.42603252 eV
  | XC energy correction          :        -536.00563035 Ha      -14585.45530161 eV
  | XC potential correction       :         699.91406219 Ha       19045.63066320 eV
  | Free-atom electrostatic energy:       -9260.56432391 Ha     -251992.77650497 eV
  | Hartree energy correction     :           7.97731547 Ha         217.07379861 eV
  | vdW energy correction         :           0.00000000 Ha           0.00000000 eV
  | Entropy correction            :           0.00000000 Ha           0.00000000 eV
  | ---------------------------
  | Total energy                  :      -23938.03054664 Ha     -651386.95337729 eV
  | Total energy, T -> 0          :      -23938.03054664 Ha     -651386.95337729 eV  <-- do not rely on this value for anything but (periodic) metals
  | Electronic free energy        :      -23938.03054664 Ha     -651386.95337729 eV

  Derived energy quantities:
  | Kinetic energy                :       26291.55259846 Ha      715429.54685880 eV
  | Electrostatic energy          :      -49693.57751475 Ha    -1352231.04493448 eV
  | Energy correction for multipole
  | error in Hartree potential    :          -0.00073592 Ha          -0.02002540 eV
  | Sum of eigenvalues per atom                           :     -134690.47534417 eV
  | Total energy (T->0) per atom                          :     -217128.98445910 eV  <-- do not rely on this value for anything but (periodic) metals
  | Electronic free energy per atom                       :     -217128.98445910 eV

  Self-consistency convergence accuracy:
  | Change of charge density      :  0.2534E+00
  | Change of sum of eigenvalues  : -0.1854E+03 eV
  | Change of total energy        :  0.5614E+00 eV

  End self-consistency iteration #     2       :  max(cpu_time)    wall_clock(cpu1)
  | Time for this iteration                    :        1.280 s           1.280 s
[...]
  |   Maximum:        4.043 MB (hamiltonian_shell on task  8)
  |   Average:        3.813 MB
  Note:  These values currently only include a subset of arrays which are explicitly tracked.
  The "true" memory usage will be greater.
------------------------------------------------------------

------------------------------------------------------------
          Begin self-consistency iteration #   21

  Date     :  20200402, Time     :  184622.919
------------------------------------------------------------
  Evaluating new KS density using the density matrix
  Evaluating density matrix
  Time summed over all CPUs for getting density from density matrix: real work       14.556 s, elapsed       14.928 s
  
  Evaluating density-matrix-based force terms: batch-based integration
  Evaluating density matrix
  Evaluating density matrix
  Integration grid: deviation in total charge (<rho> - N_e) =   0.000000E+00
  Pulay mixing of updated and previous charge densities.
  Renormalizing the density to the exact electron count on the 3D integration grid.
  | Formal number of electrons (from input files) :     146.0000000000
  | Integrated number of electrons on 3D grid     :     146.0000000004
  | Charge integration error                      :       0.0000000004
  | Normalization factor for density and gradient :       1.0000000000

  Evaluating partitioned Hartree potential by multipole expansion.
  | Original multipole sum: apparent total charge =   0.469325E-13
  | Sum of charges compensated after spline to logarithmic grids =   0.113592E-06
  | Analytical far-field extrapolation by fixed multipoles:
  | Hartree multipole sum: apparent total charge =   0.468341E-13
  Summing up the Hartree potential.
  Time summed over all CPUs for potential: real work       26.863 s, elapsed       26.864 s
  | RMS charge density error from multipole expansion :   0.490977E-02
  | Average real-space part of the electrostatic potential :     -0.00029650 eV

  Integrating Hamiltonian matrix: batch-based integration.
  Time summed over all CPUs for integration: real work        7.807 s, elapsed        7.963 s

  Updating Kohn-Sham eigenvalues and eigenvectors using ELSI and the ELPA eigensolver.
  Starting ELPA eigensolver
  Finished transformation to standard eigenproblem
  | Time :     0.001 s
  Finished solving standard eigenproblem
  | Time :     0.005 s
  Finished back-transformation of eigenvectors
  | Time :     0.001 s

  Obtaining occupation numbers and chemical potential using ELSI.
  | Chemical potential (Fermi level):    -5.06938051 eV
  What follows are estimated values for band gap, HOMO, LUMO, etc.
  | They are estimated on a discrete k-point grid and not necessarily exact.
  | For converged numbers, create a DOS and/or band structure plot on a denser k-grid.

  Highest occupied state (VBM) at     -5.67170455 eV (relative to internal zero)
  | Occupation number:      2.00000000
  | K-point:       1 at    0.000000    0.000000    0.000000 (in units of recip. lattice)

  Lowest unoccupied state (CBM) at    -4.29731942 eV (relative to internal zero)
  | Occupation number:      0.00000000
  | K-point:      10 at    0.750000    0.250000    0.000000 (in units of recip. lattice)

  ESTIMATED overall HOMO-LUMO gap:      1.37438512 eV between HOMO at k-point 1 and LUMO at k-point 10
  | This appears to be an indirect band gap.
  | Smallest direct gap :      1.49975831 eV for k_point 2 at    0.750000    0.250000    0.000000 (in units of recip. lattice)
  The gap value is above 0.2 eV. Unless you are using a very sparse k-point grid,
  this system is most likely an insulator or a semiconductor.

  Total energy components:
  | Sum of eigenvalues            :      -14846.02197893 Ha     -403980.81236418 eV
  | XC energy correction          :        -536.02372015 Ha      -14585.94755024 eV
  | XC potential correction       :         699.93563864 Ha       19046.21778834 eV
  | Free-atom electrostatic energy:       -9260.56432391 Ha     -251992.77650497 eV
  | Hartree energy correction     :           4.64583200 Ha         126.41952082 eV
  | vdW energy correction         :           0.00000000 Ha           0.00000000 eV
  | Entropy correction            :           0.00000000 Ha           0.00000000 eV
  | ---------------------------
  | Total energy                  :      -23938.02855236 Ha     -651386.89911025 eV
  | Total energy, T -> 0          :      -23938.02855236 Ha     -651386.89911025 eV  <-- do not rely on this value for anything but (periodic) metals
  | Electronic free energy        :      -23938.02855236 Ha     -651386.89911025 eV

  Derived energy quantities:
  | Kinetic energy                :       26292.55334183 Ha      715456.77847132 eV
  | Electrostatic energy          :      -49694.55817404 Ha    -1352257.73003132 eV
  | Energy correction for multipole
  | error in Hartree potential    :          -0.00225645 Ha          -0.06140101 eV
  | Sum of eigenvalues per atom                           :     -134660.27078806 eV
  | Total energy (T->0) per atom                          :     -217128.96637008 eV  <-- do not rely on this value for anything but (periodic) metals
  | Electronic free energy per atom                       :     -217128.96637008 eV

  atomic forces [eV/Ang]:
  -----------------------
  atom #    1
   Hellmann-Feynman              :  0.579701E+00 -0.480757E+00  0.596862E+02
   Ionic forces                  :  0.000000E+00  0.000000E+00  0.000000E+00
   Multipole                     :  0.730998E-08  0.669784E-04 -0.342781E-01
   Pulay + GGA                   : -0.116059E+01  0.961152E+00 -0.597920E+02
   Van der Waals                 :  0.000000E+00  0.000000E+00  0.000000E+00
   ----------------------------------------------------------------
   Total forces(   1)            : -0.580890E+00  0.480462E+00 -0.140074E+00
  atom #    2
   Hellmann-Feynman              : -0.128479E+01  0.480757E+00 -0.596862E+02
   Ionic forces                  :  0.000000E+00  0.000000E+00  0.000000E+00
   Multipole                     : -0.765196E-08 -0.669784E-04  0.342781E-01
   Pulay + GGA                   :  0.257221E+01 -0.961152E+00  0.597921E+02
   Van der Waals                 :  0.000000E+00  0.000000E+00  0.000000E+00
   ----------------------------------------------------------------
   Total forces(   2)            :  0.128742E+01 -0.480462E+00  0.140081E+00
  atom #    3
   Hellmann-Feynman              :  0.118924E+03  0.554394E-05 -0.266872E-03
   Ionic forces                  :  0.000000E+00  0.000000E+00  0.000000E+00
   Multipole                     :  0.415124E-08 -0.162460E-09  0.522951E-08
   Pulay + GGA                   : -0.237810E+03 -0.105658E-04  0.913033E-03
   Van der Waals                 :  0.000000E+00  0.000000E+00  0.000000E+00
   ----------------------------------------------------------------
   Total forces(   3)            : -0.118886E+03 -0.502207E-05  0.646166E-03


  Analytical stress tensor components [eV]         xx                  yy                  zz                  xy                  xz                  yz
  -----------------------------------------------------------------------------------------------------------------------------------------------------------
    Nuclear Hellmann-Feynman      :    -0.1133496190E+02   -0.1133581954E+02   -0.2449005866E+02    0.4441148042E-06    0.2313158158E-06   -0.9187554149E-03
    Multipole Hellmann-Feynman    :    -0.6308591568E+02   -0.6308654276E+02   -0.5769911013E+02    0.6327662741E-06   -0.8711201373E-07   -0.7278646519E-03
    On-site Multipole corrections :    -0.6338549350E+01   -0.6338479031E+01   -0.6338619196E+01    0.1098219570E-09   -0.3866970317E-10    0.1510968226E-04
    Strain deriv. of the orbitals :     0.8173149705E+02    0.8173274338E+02    0.8899043277E+02   -0.9335930971E-06   -0.2069902808E-06    0.1687746209E-02
  -----------------------------------------------------------------------------------------------------------------------------------------------------------
  Sum of all contributions        :     0.9720701170E+00    0.9719020606E+00    0.4626447852E+00    0.1433978031E-06   -0.6282514844E-07    0.5623582457E-04

  +-------------------------------------------------------------------+
  |     Analytical stress tensor w/o vdW correction - Symmetrized     |
  |                  Cartesian components [eV/A**3]                   |
  +-------------------------------------------------------------------+
  |                x                y                z                |
  |                                                                   |
  |  x         0.00076277       0.00000000      -0.00000000           |
  |  y         0.00000000       0.00076264       0.00000004           |
  |  z        -0.00000000       0.00000004       0.00036303           |
  |                                                                   |
  |  Pressure:      -0.00062948   [eV/A**3]                           |
  |                                                                   |
  +-------------------------------------------------------------------+


  Self-consistency convergence accuracy:
  | Change of charge density      :  0.4737E-07
  | Change of sum of eigenvalues  :  0.1707E-04 eV
  | Change of total energy        :  0.9899E-10 eV
  | Change of forces              :  0.2955E-05 eV/A

  Writing Kohn-Sham eigenvalues.
  K-point:       1 at    0.000000    0.000000    0.000000 (in units of recip. lattice)

  State    Occupation    Eigenvalue [Ha]    Eigenvalue [eV]
      1       2.00000       -3153.198161       -85802.88757
      2       2.00000        -515.686900       -14032.55452
      3       2.00000        -466.330543       -12689.49971
      4       2.00000        -466.330543       -12689.49971
      5       2.00000        -446.050136       -12137.64177
      6       2.00000        -446.050135       -12137.64173
      7       2.00000        -446.049954       -12137.63679
      8       2.00000        -119.597292        -3254.40789
      9       2.00000         -99.751668        -2714.38100
     10       2.00000         -99.751668        -2714.38098
     11       2.00000         -99.751390        -2714.37342
     12       2.00000         -78.341174        -2131.77180
     13       2.00000         -78.341173        -2131.77179
     14       2.00000         -78.339942        -2131.73827
     15       2.00000         -78.339941        -2131.73827
     16       2.00000         -78.339840        -2131.73551
     17       2.00000         -59.195682        -1610.79648
     18       2.00000         -59.195682        -1610.79647
     19       2.00000         -52.054281        -1416.46906
     20       2.00000         -52.054281        -1416.46906
     21       2.00000         -52.054281        -1416.46906
     22       2.00000         -52.054281        -1416.46906
     23       2.00000         -52.053884        -1416.45826
     24       2.00000         -52.053884        -1416.45826
     25       2.00000         -25.663590         -698.34183
     26       2.00000         -19.198870         -522.42783
     27       2.00000         -19.198870         -522.42783
     28       2.00000         -19.198025         -522.40485
     29       2.00000         -11.373222         -309.48112
     30       2.00000         -11.373222         -309.48111
     31       2.00000         -11.368669         -309.35721
     32       2.00000         -11.368668         -309.35721
     33       2.00000         -11.368297         -309.34709
     34       2.00000          -7.841411         -213.37566
     35       2.00000          -7.841411         -213.37566
     36       2.00000          -5.615615         -152.80865
     37       2.00000          -5.615615         -152.80865
     38       2.00000          -5.615615         -152.80865
     39       2.00000          -5.615615         -152.80865
     40       2.00000          -5.614369         -152.77475
     41       2.00000          -5.614369         -152.77474
     42       2.00000          -3.825454         -104.09591
     43       2.00000          -2.677372          -72.85501
     44       2.00000          -2.676857          -72.84099
     45       2.00000          -2.676855          -72.84093
     46       2.00000          -2.675119          -72.79369
     47       2.00000          -2.674086          -72.76558
     48       2.00000          -2.674086          -72.76557
     49       2.00000          -2.671140          -72.68542
     50       2.00000          -2.140098          -58.23502
     51       2.00000          -2.140097          -58.23502
     52       2.00000          -2.136839          -58.14636
     53       2.00000          -1.947026          -52.98127
     54       2.00000          -1.947026          -52.98127
     55       2.00000          -1.946975          -52.97989
     56       2.00000          -1.946975          -52.97989
     57       2.00000          -1.946122          -52.95667
     58       2.00000          -1.946122          -52.95666
     59       2.00000          -1.946031          -52.95420
     60       2.00000          -1.946031          -52.95420
     61       2.00000          -1.945708          -52.94541
     62       2.00000          -1.945696          -52.94510
     63       2.00000          -0.713581          -19.41752
     64       2.00000          -0.650376          -17.69763
     65       2.00000          -0.387682          -10.54937
     66       2.00000          -0.387682          -10.54937
     67       2.00000          -0.384752          -10.46963
     68       2.00000          -0.306612           -8.34333
     69       2.00000          -0.306611           -8.34331
     70       2.00000          -0.250008           -6.80307
     71       2.00000          -0.226392           -6.16045
     72       2.00000          -0.208431           -5.67171
     73       2.00000          -0.208431           -5.67170
     74       0.00000          -0.102437           -2.78744
     75       0.00000          -0.102436           -2.78744
     76       0.00000          -0.029070           -0.79103
     77       0.00000           0.005038            0.13708
     78       0.00000           0.088090            2.39705
     79       0.00000           0.104963            2.85620
     80       0.00000           0.104964            2.85623
     81       0.00000           0.122259            3.32684
     82       0.00000           0.257549            7.00827
     83       0.00000           0.257550            7.00829
     84       0.00000           0.283977            7.72739
     85       0.00000           0.356426            9.69885
     86       0.00000           0.363505            9.89148
     87       0.00000           0.364373            9.91509
     88       0.00000           0.364374            9.91512
     89       0.00000           0.374893           10.20136
     90       0.00000           0.374894           10.20140
     91       0.00000           0.567070           15.43076
     92       0.00000           0.567072           15.43081
     93       0.00000           0.600563           16.34215

  What follows are estimated values for band gap, HOMO, LUMO, etc.
  | They are estimated on a discrete k-point grid and not necessarily exact.
  | For converged numbers, create a DOS and/or band structure plot on a denser k-grid.

  Highest occupied state (VBM) at     -5.67170455 eV (relative to internal zero)
  | Occupation number:      2.00000000
  | K-point:       1 at    0.000000    0.000000    0.000000 (in units of recip. lattice)

  Lowest unoccupied state (CBM) at    -4.29731942 eV (relative to internal zero)
  | Occupation number:      0.00000000
  | K-point:      10 at    0.750000    0.250000    0.000000 (in units of recip. lattice)

  ESTIMATED overall HOMO-LUMO gap:      1.37438512 eV between HOMO at k-point 1 and LUMO at k-point 10
  | This appears to be an indirect band gap.
  | Smallest direct gap :      1.49975831 eV for k_point 2 at    0.750000    0.250000    0.000000 (in units of recip. lattice)
  The gap value is above 0.2 eV. Unless you are using a very sparse k-point grid,
  this system is most likely an insulator or a semiconductor.

  Self-consistency cycle converged.

  End self-consistency iteration #    21       :  max(cpu_time)    wall_clock(cpu1)
  | Time for this iteration                    :       15.916 s          15.919 s
  | Charge density & force component update    :       14.424 s          14.426 s
  | Density mixing                             :        0.002 s           0.002 s
  | Hartree multipole update                   :        0.002 s           0.002 s
  | Hartree multipole summation                :        1.144 s           1.144 s
  | Integration                                :        0.335 s           0.335 s
  | Solution of K.-S. eqns.                    :        0.008 s           0.009 s
  | Total energy evaluation                    :        0.001 s           0.000 s

  Partial memory accounting:
  | Current value for overall tracked memory usage:
  |   Minimum:        1.931 MB (on task  2)
  |   Maximum:        2.126 MB (on task  3)
  |   Average:        2.043 MB
  | Peak value for overall tracked memory usage:
  |   Minimum:       23.502 MB (on task 19 after allocating d_wave)
  |   Maximum:       24.942 MB (on task  8 after allocating d_wave)
  |   Average:       24.086 MB
  | Largest tracked array allocation so far:
  |   Minimum:        5.369 MB (hessian_basis_wave on task 19)
  |   Maximum:        5.632 MB (hessian_basis_wave on task  8)
  |   Average:        5.469 MB
  Note:  These values currently only include a subset of arrays which are explicitly tracked.
  The "true" memory usage will be greater.
------------------------------------------------------------
  Obtaining max. number of non-zero basis functions in each batch .
  Evaluating KS electron density on previously omitted grid points, using the density matrix.
  Evaluating density matrix

  Entering Libmbd.
  Libmbd: VdW method: mbd-nl
  Libmbd: Evaluating kinetic energy density...

  Evaluating density matrix

  Libmbd: Performing Hirshfeld analysis...
  Libmbd: Calculating MBD energy...
**Error! MPI task       0 in elsi_elpa_evec_cmplx: ELPA eigensolver failed
**Error! MPI task       2 in elsi_elpa_evec_cmplx: ELPA eigensolver failed
**Error! MPI task       3 in elsi_elpa_evec_cmplx: ELPA eigensolver failed
**Error! MPI task       4 in elsi_elpa_evec_cmplx: ELPA eigensolver failed
**Error! MPI task       5 in elsi_elpa_evec_cmplx: ELPA eigensolver failed
**Error! MPI task       6 in elsi_elpa_evec_cmplx: ELPA eigensolver failed
**Error! MPI task       8 in elsi_elpa_evec_cmplx: ELPA eigensolver failed
**Error! MPI task       9 in elsi_elpa_evec_cmplx: ELPA eigensolver failed
**Error! MPI task      10 in elsi_elpa_evec_cmplx: ELPA eigensolver failed
**Error! MPI task      11 in elsi_elpa_evec_cmplx: ELPA eigensolver failed
**Error! MPI task      12 in elsi_elpa_evec_cmplx: ELPA eigensolver failed
**Error! MPI task      13 in elsi_elpa_evec_cmplx: ELPA eigensolver failed
**Error! MPI task      14 in elsi_elpa_evec_cmplx: ELPA eigensolver failed
**Error! MPI task      15 in elsi_elpa_evec_cmplx: ELPA eigensolver failed
**Error! MPI task      16 in elsi_elpa_evec_cmplx: ELPA eigensolver failed
**Error! MPI task      17 in elsi_elpa_evec_cmplx: ELPA eigensolver failed
**Error! MPI task      18 in elsi_elpa_evec_cmplx: ELPA eigensolver failed
**Error! MPI task      19 in elsi_elpa_evec_cmplx: ELPA eigensolver failed
**Error! MPI task      20 in elsi_elpa_evec_cmplx: ELPA eigensolver failed
**Error! MPI task      21 in elsi_elpa_evec_cmplx: ELPA eigensolver failed
**Error! MPI task      22 in elsi_elpa_evec_cmplx: ELPA eigensolver failed
**Error! MPI task      23 in elsi_elpa_evec_cmplx: ELPA eigensolver failed
**Error! MPI task       7 in elsi_elpa_evec_cmplx: ELPA eigensolver failed
**Error! MPI task       1 in elsi_elpa_evec_cmplx: ELPA eigensolver failed
