------------------------------------------------------------
          Invoking FHI-aims ...

          When using FHI-aims, please cite the following reference:

          Volker Blum, Ralf Gehrke, Felix Hanke, Paula Havu,
          Ville Havu, Xinguo Ren, Karsten Reuter, and Matthias Scheffler,
          'Ab Initio Molecular Simulations with Numeric Atom-Centered Orbitals',
          Computer Physics Communications 180, 2175-2196 (2009)

          For any questions about FHI-aims, please visit the aimsclub website
          with its forums and wiki. Contributions to both the forums and the
          wiki are warmly encouraged - they are for you, and everyone is welcome there.

------------------------------------------------------------



  Date     :  20200420, Time     :  113518.700
  Time zero on CPU 1             :   0.981370000000000E-01  s.
  Internal wall clock time zero  :           356614518.700  s.

  FHI-aims created a unique identifier for this run for later identification
  aims_uuid : 8B0ED553-3655-4074-A0F0-E8297616863E

  Build configuration of the current instance of FHI-aims
  -------------------------------------------------------
  FHI-aims version      : 200112
  Commit number         : 23daeca3f
  CMake host system     : Linux-3.10.0-693.21.1.el7.x86_64
  CMake version         : 3.13.3
  Fortran compiler      : /sw/installed/impi/2018.4.274-iccifort-2019.1.144-GCC-8.2.0-2.31.1/bin64/mpiifort (Intel) version 19.0.0.20181018
  Fortran compiler flags: -O3 -ip -fp-model precise
  C compiler            : /sw/installed/impi/2018.4.274-iccifort-2019.1.144-GCC-8.2.0-2.31.1/bin64/mpiicc (Intel) version 19.0.0.20181018
  C compiler flags      : -O3 -ip -fp-model precise
  Architecture          :
  Using MPI
  Using Scalapack
  Using C files
  Using LibXC
  Using SPGlib
  Using i-PI
  Using RLSY
  Linking against: /sw/installed/imkl/2019.1.144-iimpi-2019a/mkl/lib/intel64/libmkl_intel_lp64.so
                   /sw/installed/imkl/2019.1.144-iimpi-2019a/mkl/lib/intel64/libmkl_sequential.so
                   /sw/installed/imkl/2019.1.144-iimpi-2019a/mkl/lib/intel64/libmkl_core.so
                   /sw/installed/imkl/2019.1.144-iimpi-2019a/mkl/lib/intel64/libmkl_blacs_intelmpi_lp64.so
                   /sw/installed/imkl/2019.1.144-iimpi-2019a/mkl/lib/intel64/libmkl_scalapack_lp64.so

  Using       24 parallel tasks.
  Task        0 on host taurusi6221.taurus.hrsk.tu-dresden.de reporting.
  Task        1 on host taurusi6221.taurus.hrsk.tu-dresden.de reporting.
  Task        2 on host taurusi6221.taurus.hrsk.tu-dresden.de reporting.
  Task        3 on host taurusi6221.taurus.hrsk.tu-dresden.de reporting.
  Task        4 on host taurusi6221.taurus.hrsk.tu-dresden.de reporting.
  Task        5 on host taurusi6221.taurus.hrsk.tu-dresden.de reporting.
  Task        6 on host taurusi6221.taurus.hrsk.tu-dresden.de reporting.
  Task        7 on host taurusi6221.taurus.hrsk.tu-dresden.de reporting.
  Task        8 on host taurusi6221.taurus.hrsk.tu-dresden.de reporting.
  Task        9 on host taurusi6221.taurus.hrsk.tu-dresden.de reporting.
  Task       10 on host taurusi6221.taurus.hrsk.tu-dresden.de reporting.
  Task       11 on host taurusi6221.taurus.hrsk.tu-dresden.de reporting.
  Task       12 on host taurusi6221.taurus.hrsk.tu-dresden.de reporting.
  Task       13 on host taurusi6221.taurus.hrsk.tu-dresden.de reporting.
  Task       14 on host taurusi6221.taurus.hrsk.tu-dresden.de reporting.
  Task       15 on host taurusi6221.taurus.hrsk.tu-dresden.de reporting.
  Task       16 on host taurusi6221.taurus.hrsk.tu-dresden.de reporting.
  Task       17 on host taurusi6221.taurus.hrsk.tu-dresden.de reporting.
  Task       18 on host taurusi6221.taurus.hrsk.tu-dresden.de reporting.
  Task       19 on host taurusi6221.taurus.hrsk.tu-dresden.de reporting.
  Task       20 on host taurusi6221.taurus.hrsk.tu-dresden.de reporting.
  Task       21 on host taurusi6221.taurus.hrsk.tu-dresden.de reporting.
  Task       22 on host taurusi6221.taurus.hrsk.tu-dresden.de reporting.
  Task       23 on host taurusi6221.taurus.hrsk.tu-dresden.de reporting.

  Performing system and environment tests:
  | Environment variable OMP_NUM_THREADS correctly set to 1.
  | Maximum stacksize for task 0: unlimited
  | Maximum stacksize for task 1: unlimited
  | Maximum stacksize for task 2: unlimited
  | Maximum stacksize for task 3: unlimited
  | Maximum stacksize for task 4: unlimited
  | Maximum stacksize for task 5: unlimited
  | Maximum stacksize for task 6: unlimited
  | Maximum stacksize for task 7: unlimited
  | Maximum stacksize for task 8: unlimited
  | Maximum stacksize for task 9: unlimited
  | Maximum stacksize for task 10: unlimited
  | Maximum stacksize for task 11: unlimited
  | Maximum stacksize for task 12: unlimited
  | Maximum stacksize for task 13: unlimited
  | Maximum stacksize for task 14: unlimited
  | Maximum stacksize for task 15: unlimited
  | Maximum stacksize for task 16: unlimited
  | Maximum stacksize for task 17: unlimited
  | Maximum stacksize for task 18: unlimited
  | Maximum stacksize for task 19: unlimited
  | Maximum stacksize for task 20: unlimited
  | Maximum stacksize for task 21: unlimited
  | Maximum stacksize for task 22: unlimited
  | Maximum stacksize for task 23: unlimited
  | Current stacksize for task 0: unlimited
  | Current stacksize for task 1: unlimited
  | Current stacksize for task 2: unlimited
  | Current stacksize for task 3: unlimited
  | Current stacksize for task 4: unlimited
  | Current stacksize for task 5: unlimited
  | Current stacksize for task 6: unlimited
  | Current stacksize for task 7: unlimited
  | Current stacksize for task 8: unlimited
  | Current stacksize for task 9: unlimited
  | Current stacksize for task 10: unlimited
  | Current stacksize for task 11: unlimited
  | Current stacksize for task 12: unlimited
  | Current stacksize for task 13: unlimited
  | Current stacksize for task 14: unlimited
  | Current stacksize for task 15: unlimited
  | Current stacksize for task 16: unlimited
  | Current stacksize for task 17: unlimited
  | Current stacksize for task 18: unlimited
  | Current stacksize for task 19: unlimited
  | Current stacksize for task 20: unlimited
  | Current stacksize for task 21: unlimited
  | Current stacksize for task 22: unlimited
  | Current stacksize for task 23: unlimited
  | Checking for scalapack...
  | Testing pdtran()...
  | All pdtran() tests passed.

  Obtaining array dimensions for all initial allocations:
  
  -----------------------------------------------------------------------
  Parsing control.in (first pass over file, find array dimensions only).
  The contents of control.in will be repeated verbatim below
  unless switched off by setting 'verbatim_writeout .false.' .
  in the first line of control.in .
  -----------------------------------------------------------------------
  
  #===============================================================================
  # FHI-aims file: ./control.in
  # Created using the Atomic Simulation Environment (ASE)
  # Thu Apr  2 11:27:09 2020
  #===============================================================================
  xc                                 pbe
  # include_spin_orbit
  # vdw_correction_hirshfeld
  many_body_dispersion_nl 	 beta=0.81
  spin                               none
  k_grid 	 	 18 18 15
  relativistic                       atomic_zora scalar
  energy_tolerance 1e-2
  harmonic_length_scale  0.015
  ### SCF settings
  adjust_scf 	 always 	 3
  # frozen_core_scf 	 .true.
  # charge_mix_param  0.05
  # occupation_type 	 gaussian 	 0.01
  # sc_accuracy_eev   1E-3 	 	 # sum of eigenvalues convergence
  # sc_accuracy_etot  1E-6 	 	 # total energy convergence
  # sc_accuracy_rho   1E-3 	 	 # electron density convergence
  # elsi_restart 	 read_and_write 	 1000
  ### geometry optimisation section
  relax_geometry 	 bfgs 	 1E-2
  relax_unit_cell 	 full
  #===============================================================================
  
  ################################################################################
  #
  #  FHI-aims code project
  # Volker Blum, Fritz Haber Institute Berlin, 2009
  #
  #  Suggested "tight" defaults for Pd atom (to be pasted into control.in file)
  #
  ################################################################################
    species        Pd
  #     global species definitions
      nucleus             46
      mass                106.42
  #
      l_hartree           6
  #
      cut_pot             4.0  2.0  1.0
      basis_dep_cutoff    1e-4
  #
      radial_base         62 7.0
      radial_multiplier   2
      angular_grids specified
        division   0.3627   50
        division   0.7349  110
        division   1.0624  194
        division   1.2496  302
        division   1.6740  434
  #      division   2.0126  590
  #      division   2.0830  770
  #      division   2.7936 1202
  #       outer_grid  974
        outer_grid  434
  ################################################################################
  #
  #  Definition of "minimal" basis
  #
  ################################################################################
  #     valence basis states
      valence      5  s   1.
      valence      4  p   6.
      valence      4  d   9.
  #     ion occupancy
      ion_occ     5  s   0.
      ion_occ     4  p   6.
      ion_occ     4  d   8.
  ################################################################################
  #
  #  Suggested additional basis functions. For production calculations,
  #  uncomment them one after another (the most important basis functions are
  #  listed first).
  #
  #  Constructed for dimers: 2.0 A, 2.275 A, 2.75 A, 3.75 A
  #
  ################################################################################
  #  "First tier" - max. impr. -120.76  meV, min. impr. -5.71 meV
       ionic 5 p auto
       hydro 4 f 8
       hydro 5 g 10
       hydro 3 s 2.6
       hydro 3 d 2.5
  #  "Second tier" - max. impr. -5.00  meV, min. impr. -0.62 meV
  #     hydro 5 f 17.2
  #     hydro 6 h 14
  #     hydro 4 d 4
  #     hydro 5 f 7.6
  #     hydro 3 p 3.3
  #     hydro 4 s 9.4
  #  "Third tier" - max. impr. -0.54  meV, min. impr. -0.14 meV
  #     hydro 4 f 20
  #     hydro 5 g 12.8
  #     hydro 5 d 9.8
  #     hydro 6 h 15.2
  #     hydro 5 s 10
  #     hydro 6 p 9.8
  #  "Fourth tier" - max. impr. -0.15  meV, min. impr. -0.05 meV
  #     hydro 5 f 9.2
  #     hydro 2 s 5.6
  #     hydro 5 f 43.2
  #     hydro 5 d 13.2
  #     hydro 5 g 14
  #     hydro 4 p 4.7
  ################################################################################
  #
  #  FHI-aims code project
  # Volker Blum, Fritz Haber Institute Berlin, 2009
  #
  #  Suggested "tight" defaults for Se atom (to be pasted into control.in file)
  #
  ################################################################################
    species        Se
  #     global species definitions
      nucleus             34
      mass                78.96
  #
      l_hartree           6
  #
      cut_pot             4.0          2.0  1.0
      basis_dep_cutoff    1e-4
  #
      radial_base         55 7.0
      radial_multiplier   2
      angular_grids       specified
        division   0.0830  110
        division   0.1357  194
        division   0.7377  302
        division   0.8610  434
  #      division   0.9640  590
  #      division   1.0773  770
  #      division   2.5539  974
  #      outer_grid  974
        outer_grid  434
  ################################################################################
  #
  #  Definition of "minimal" basis
  #
  ################################################################################
  #     valence basis states
      valence      4  s   2.
      valence      4  p   4.
      valence      3  d  10.
  #     ion occupancy
      ion_occ      4  s   1.
      ion_occ      4  p   3.
      ion_occ      3  d  10.
  ################################################################################
  #
  #  Suggested additional basis functions. For production calculations,
  #  uncomment them one after another (the most important basis functions are
  #  listed first).
  #
  #  Constructed for dimers: 1.85 A, 2.15 A, 2.50 A, 3.00 A, 4.00 A
  #
  ################################################################################
  #  "First tier" - improvements: -336.21 meV to -36.85 meV
       hydro 3 d 4.3
       hydro 2 p 1.6
       hydro 4 f 7.2
       ionic 4 s auto
  #  "Second tier" - improvements: -14.39 meV to -1.49 meV
  #     hydro 5 g 10.4
  #     hydro 4 p 4.5
  #     hydro 4 d 6.2
  #     hydro 4 f 11.2
  #     hydro 1 s 0.65
  #     hydro 6 h 15.2
  #  "Third tier" - improvements: -0.46 meV and below
  #     hydro 5 g 14.4
  #     ionic 4 d auto
  #     hydro 4 f 22.4
  #     hydro 5 f 7.4
  #     hydro 5 p 8
  #     hydro 5 s 9.4
  #  "Fourth tier" - improvements: -0.12 meV and below
  #     hydro 5 d 11.6
  #     hydro 6 h 18
  #     hydro 4 p 4
  #     hydro 5 f 16
  #     hydro 4 s 3.9
  #
  #
  
  -----------------------------------------------------------------------
  Completed first pass over input file control.in .
  -----------------------------------------------------------------------
  
  
  -----------------------------------------------------------------------
  Parsing geometry.in (first pass over file, find array dimensions only).
  The contents of geometry.in will be repeated verbatim below
  unless switched off by setting 'verbatim_writeout .false.' .
  in the first line of geometry.in .
  -----------------------------------------------------------------------
  
  #
  # This is the geometry file that corresponds to the current relaxation step.
  # If you do not want this file to be written, set the "write_restart_geometry" flag to .false.
  #  aims_uuid : 1FDAF6C6-345B-43F3-ACD5-26B03F03287E
  #
  lattice_vector      5.83778932      0.00000000      0.00000000
  lattice_vector      0.00000000      5.95031556      0.00000000
  lattice_vector      0.00000000      0.00000000      7.51814442
  atom_frac       0.50114939      0.00041811      0.00029850 Pd
  atom_frac       0.00041671      0.00048346      0.50137667 Pd
  atom_frac       0.00052342      0.50114425      0.00032280 Pd
  atom_frac       0.50125703      0.50120845      0.50135370 Pd
  atom_frac       0.61288488      0.11862922      0.40369627 Se
  atom_frac       0.89028786      0.88373968      0.90433397 Se
  atom_frac       0.11216010      0.38305441      0.59876707 Se
  atom_frac       0.38943202      0.61939111      0.09792569 Se
  atom_frac       0.38949293      0.88375450      0.59877297 Se
  atom_frac       0.11215309      0.11871507      0.09795621 Se
  atom_frac       0.89022248      0.61930340      0.40370770 Se
  atom_frac       0.61289503      0.38303327      0.90436341 Se
  #
  # What follows is the current estimated Hessian matrix constructed by the BFGS algorithm.
  # This is NOT the true Hessian matrix of the system.
  # If you do not want this information here, switch it off using the "hessian_to_restart_geometry" keyword.
  #
  trust_radius             0.0122099134
  hessian_block                1       1           6.311601          -0.906627          -2.537869          -0.906627           8.77879
  hessian_block                1       2          -0.957580           2.829301           0.872647          -0.401567           2.32192
  hessian_block                1       3          -1.339384           3.947286           1.243990           0.010359          -0.41839
  hessian_block                1       4           0.521136           0.246872          -0.054460           0.426617          -1.02978
  hessian_block                1       5           0.512726          -2.009159          -0.749261          -1.550808           3.19492
  hessian_block                1       6          -0.202550          -3.933714          -0.729877           1.840801          -4.14118
  hessian_block                1       7          -1.080996           2.081291           0.824227           0.466916          -0.66210
  hessian_block                1       8           0.350036          -2.099970          -0.230885          -0.072820          -2.71469
  hessian_block                1       9          -0.092168          -0.051733           0.161237           0.590230          -2.89722
  hessian_block                1      10          -3.951173           5.136032           2.517363          -1.288024           3.40396
  hessian_block                1      11           1.097895          -3.094066          -1.058042           0.459588          -0.88784
  hessian_block                1      12           0.396367          -2.145514          -0.259071           0.425338          -3.30136
  hessian_block                2       2           8.322633           2.223698           3.502240           2.223698           8.51936
  hessian_block                2       3           4.089690           3.370124           2.030656          -0.635095          -0.51567
  hessian_block                2       4           0.186533           0.539092           0.093593          -1.156508          -0.18579
  hessian_block                2       5          -3.525800          -0.993385          -1.607305           3.393614           2.03908
  hessian_block                2       6          -4.344864          -3.553658          -2.112459          -3.827540          -3.81725
  hessian_block                2       7           1.766222           0.883699           0.690122          -1.336225          -2.51432
  hessian_block                2       8          -1.656277          -1.613119          -0.933214          -0.632379          -0.85814
  hessian_block                2       9          -2.100222           0.267530          -1.025256          -1.865945          -2.99665
  hessian_block                2      10           4.625220           3.402666           2.259174           3.707841           3.53685
  hessian_block                2      11          -3.081841          -2.911907          -1.653539          -1.230068          -3.20554
  hessian_block                2      12          -1.757802          -1.213171          -0.767324          -1.470698          -0.67680
  hessian_block                3       3          11.038422          -0.755021           5.165625          -0.755021           6.22874
  hessian_block                3       4           0.260251          -0.222437          -0.070034          -1.360464           0.29073
  hessian_block                3       5          -2.531169           0.186701          -1.518524           4.070378           0.02745
  hessian_block                3       6          -6.268514           0.966837          -3.856852          -5.043319          -1.43755
  hessian_block                3       7           2.682603          -0.095805           1.766917          -1.159407           0.08458
  hessian_block                3       8          -4.089449          -0.152853          -2.045700          -1.632096          -0.32179
  hessian_block                3       9          -0.410114           0.372216           0.063032          -3.592771           0.13263
  hessian_block                3      10           6.343696           0.086129           3.734534           5.931415          -2.34402
  hessian_block                3      11          -4.088007           0.397053          -2.389740          -1.291318          -0.01266
  hessian_block                3      12          -4.122110          -0.158084          -2.048888          -2.484813          -0.06702
  hessian_block                4       4           5.897637           0.099987          -1.982941           0.099987           6.90342
  hessian_block                4       5          -0.416357           1.185907           0.238441           0.187240          -2.84923
  hessian_block                4       6          -0.080282           1.360189          -0.052904          -0.220115           0.64668
  hessian_block                4       7          -1.941942          -1.306616           0.765101          -0.276994          -0.06558
  hessian_block                4       8          -0.187804           0.363827          -0.171008           0.097098          -0.16496
  hessian_block                4       9          -0.278798           0.641941           0.122169           0.057324          -1.64136
  hessian_block                4      10          -0.421875          -1.571576          -0.025344          -0.282374          -0.50109
  hessian_block                4      11          -1.879407           0.541165           0.770378          -0.607976          -0.53771
  hessian_block                4      12          -0.093181           0.775529          -0.022436           0.382281           0.78173
  hessian_block                5       5           6.151219          -2.406160          -0.999006          -2.406160           9.69312
  hessian_block                5       6           2.820554          -5.041681           0.275695           2.414537          -4.76323
  hessian_block                5       7          -1.568043           3.243243          -0.319677          -0.222604          -0.81926
  hessian_block                5       8           0.934642          -1.803731           0.577428           0.861324          -1.13602
  hessian_block                5       9          -1.272836          -0.442548           1.713055           1.247638          -4.84326
  hessian_block                5      10          -2.790936           5.705140          -0.149788          -2.000649           4.81079
  hessian_block                5      11           2.198675          -3.972637           0.558862           1.158559          -1.51650
  hessian_block                5      12           1.053238          -1.382049          -0.299928           0.577288          -2.19081
  hessian_block                6       6          11.821497           6.355441          12.386433           6.355441          11.31688
  hessian_block                6       7          -2.932429          -2.935290          -5.123781           1.732215           1.54082
  hessian_block                6       8           2.342231           2.563346           3.954660           1.510004           1.38295
  hessian_block                6       9           0.162340           0.253612           0.188510           4.306521           4.62176
  hessian_block                6      10          -8.712356          -7.693611         -14.069917          -7.119732          -7.45851
  hessian_block                6      11           4.363618           4.302650           7.082303           1.133289           1.73056
  hessian_block                6      12           2.596665           1.989489           3.619196           2.284291           2.02509
  hessian_block                7       7           6.690021          -0.096362           1.173443          -0.096362           6.17726
  hessian_block                7       8          -1.286375           0.517193          -0.220493          -0.594564           0.03373
  hessian_block                7       9           0.310533           0.575098          -0.188426          -2.446060           0.42123
  hessian_block                7      10           3.463363          -2.036059           0.013494           3.026930          -1.85330
  hessian_block                7      11          -3.692725           1.350711          -1.829610          -0.244479          -1.55773
  hessian_block                7      12          -0.844322           0.485519           0.293799          -1.515988           0.86169
  hessian_block                8       8           5.504470           0.447926          -2.306883           0.447926           5.81015
  hessian_block                8       9           0.289677          -0.450007          -0.241850           1.810637           1.06223
  hessian_block                8      10          -2.504499          -1.615333           3.988980          -2.570134          -1.48185
  hessian_block                8      11           1.903584           0.713207          -2.535209           0.717602           1.05519
  hessian_block                8      12          -0.034325           1.367638           0.543326           1.819276          -1.01976
  hessian_block                9       9           5.011603          -0.454607          -0.751573          -0.454607           8.97804
  hessian_block                9      10          -0.150665          -4.163759           0.511037          -0.350051          -4.06429
  hessian_block                9      11          -0.103922           3.453985          -0.607352          -0.575640           1.68962
  hessian_block                9      12           0.200485           1.056806           0.337575           0.214190           1.18430
  hessian_block               10      10          13.129284           6.921122           9.208652           6.921122          11.84943
  hessian_block               10      11          -4.718383          -4.091416          -4.568997          -1.275583          -1.90664
  hessian_block               10      12          -2.745764          -1.884931          -2.399561          -2.895168          -2.34428
  hessian_block               11      11           8.126590           1.496324           1.392129           1.496324           6.78182
  hessian_block               11      12           1.439834           0.259700          -0.236443           1.814932           0.01447
  hessian_block               12      12           5.476828           0.849069           1.239752           0.849069           6.37978
  hessian_block_lv             1       1          26.160362          -2.127281           6.407228          -2.127281          24.32788
  hessian_block_lv_atom        1       1          -0.962096          -0.405829          -0.678121           2.469308           1.58251
  hessian_block_lv_atom        1       2           2.439371           1.263089           1.718294           3.163442           1.73812
  hessian_block_lv_atom        1       3           3.633939           1.928308           2.449181          -0.351493           0.13764
  hessian_block_lv_atom        1       4           0.113660           0.078292          -0.008913           0.283299           0.23138
  hessian_block_lv_atom        1       5          -1.720480          -0.905462          -0.840146           3.371007           2.43553
  hessian_block_lv_atom        1       6          -4.183370          -3.181193          -3.281462          -4.783832          -3.26194
  hessian_block_lv_atom        1       7           1.632094           0.827544           1.610162          -1.348737          -1.37690
  hessian_block_lv_atom        1       8          -1.752709          -0.845786          -1.359638          -1.207271          -0.65106
  hessian_block_lv_atom        1       9           0.150742           0.214806          -0.255017          -3.801491          -2.73956
  hessian_block_lv_atom        1      10           4.406012           3.189957           3.491571           4.974739           3.02118
  hessian_block_lv_atom        1      11          -2.607217          -1.467870          -2.219924          -1.647703          -0.26037
  hessian_block_lv_atom        1      12          -1.149947          -0.695856          -0.625986          -1.121264          -0.85652
  symmetry_n_params 39 3 36
  symmetry_params a1 b2 c3 x0 x1 x2 x3 x4 x5 x6 x7 x8 x9 x10 x11 x12 x13 x14 x15 x16 x17 x18 x19 x20 x21 x22 x23 x24 x25 x26 x27 x28 x
  symmetry_lv a1 , 0 , 0
  symmetry_lv 0 , b2 , 0
  symmetry_lv 0 , 0 , c3
  symmetry_frac x0 , x1 , x2
  symmetry_frac x3 , x4 , x5
  symmetry_frac x6 , x7 , x8
  symmetry_frac x9 , x10 , x11
  symmetry_frac x12 , x13 , x14
  symmetry_frac x15 , x16 , x17
  symmetry_frac x18 , x19 , x20
  symmetry_frac x21 , x22 , x23
  symmetry_frac x24 , x25 , x26
  symmetry_frac x27 , x28 , x29
  symmetry_frac x30 , x31 , x32
  symmetry_frac x33 , x34 , x35
  
  -----------------------------------------------------------------------
  Completed first pass over input file geometry.in .
  -----------------------------------------------------------------------
  

  Basic array size parameters:
  | Number of species                 :        2
  | Number of atoms                   :       12
  | Number of lattice vectors         :        3
  | Max. basis fn. angular momentum   :        4
  | Max. atomic/ionic basis occupied n:        5
  | Max. number of basis fn. types    :        3
  | Max. radial fns per species/type  :       10
  | Max. logarithmic grid size        :     1444
  | Max. radial integration grid size :      125
  | Max. angular integration grid size:      434
  | Max. angular grid division number :        8
  | Radial grid for Hartree potential :     1444
  | Number of spin channels           :        1

------------------------------------------------------------
          Reading file control.in.
------------------------------------------------------------
  XC: Using PBE gradient-corrected functionals.
  Using libMBD for calculating MBD and TS energies
  Spin treatment: No spin polarisation.
  Found k-point grid:        18        18        15
  Scalar relativistic treatment of kinetic energy: on-site free-atom approximation to ZORA.
  Max energy increase before discarding BFGS move:   0.100000E-01 eV
  Assuming qualitatively harmonic for steps shorter than   0.150000E-01 A.
  S.C.F. convergence parameters will be adjusted in iteration number     3 of each new s.c.f. cycle.
  Geometry relaxation: Modified BFGS - TRM (trust radius method) for lattice optimization.
  Convergence accuracy for geometry relaxation: Maximum force <   0.100000E-01 eV/A.
 
  Reading configuration options for species Pd                  .
  | Found nuclear charge :  46.0000
  | Found atomic mass :    106.420000000000      amu
  | Found l_max for Hartree potential  :   6
  | Found cutoff potl. onset [A], width [A], scale factor :    4.00000    2.00000    1.00000
  | Threshold for basis-dependent cutoff potential is   0.100000E-03
  | Found data for basic radial integration grid :    62 points, outermost radius =    7.000 A
  | Found multiplier for basic radial grid :   2
  | Found angular grid specification: user-specified.
  | Specified grid contains     6 separate shells.
  | Check grid settings after all constraints further below.
  | Found free-atom valence shell :  5 s   1.000
  | Found free-atom valence shell :  4 p   6.000
  | Found free-atom valence shell :  4 d   9.000
  | Found free-ion valence shell :  5 s   0.000
  | Found free-ion valence shell :  4 p   6.000
  | Found free-ion valence shell :  4 d   8.000
  | Found ionic basis function :  5 p , default cutoff radius.
  | Found hydrogenic basis function :  4 f   8.000
  | Found hydrogenic basis function :  5 g  10.000
  | Found hydrogenic basis function :  3 s   2.600
  | Found hydrogenic basis function :  3 d   2.500
  Species Pd                  : Missing cutoff potential type.
  Defaulting to exp(1/x)/(1-x)^2 type cutoff potential.
  Species Pd: No 'logarithmic' tag. Using default grid for free atom:
  | Default logarithmic grid data [bohr] : 0.1000E-03 0.1000E+03 0.1012E+01
  | Will include ionic basis functions of  2.0-fold positive Pd                   ion.
  Species Pd: On-site basis accuracy parameter (for Gram-Schmidt orthonormalisation) not specified.
  Using default value basis_acc =  0.1000000E-03.
  Species Pd                  : Using default innermost maximum threshold i_radial=  2 for radial functions.
  Species Pd                  : Default cutoff onset for free atom density etc. : 0.40000000E+01 AA.
  Species Pd                  : Basic radial grid will be enhanced according to radial_multiplier =   2, to contain   125 grid points.
 
  Reading configuration options for species Se                  .
  | Found nuclear charge :  34.0000
  | Found atomic mass :    78.9600000000000      amu
  | Found l_max for Hartree potential  :   6
  | Found cutoff potl. onset [A], width [A], scale factor :    4.00000    2.00000    1.00000
  | Threshold for basis-dependent cutoff potential is   0.100000E-03
  | Found data for basic radial integration grid :    55 points, outermost radius =    7.000 A
  | Found multiplier for basic radial grid :   2
  | Found angular grid specification: user-specified.
  | Specified grid contains     5 separate shells.
  | Check grid settings after all constraints further below.
  | Found free-atom valence shell :  4 s   2.000
  | Found free-atom valence shell :  4 p   4.000
  | Found free-atom valence shell :  3 d  10.000
  | Found free-ion valence shell :  4 s   1.000
  | Found free-ion valence shell :  4 p   3.000
  | Found free-ion valence shell :  3 d  10.000
  | Found hydrogenic basis function :  3 d   4.300
  | Found hydrogenic basis function :  2 p   1.600
  | Found hydrogenic basis function :  4 f   7.200
  | Found ionic basis function :  4 s , default cutoff radius.
  Species Se                  : Missing cutoff potential type.
  Defaulting to exp(1/x)/(1-x)^2 type cutoff potential.
  Species Se: No 'logarithmic' tag. Using default grid for free atom:
  | Default logarithmic grid data [bohr] : 0.1000E-03 0.1000E+03 0.1012E+01
  | Will include ionic basis functions of  2.0-fold positive Se                   ion.
  Species Se: On-site basis accuracy parameter (for Gram-Schmidt orthonormalisation) not specified.
  Using default value basis_acc =  0.1000000E-03.
  Species Se                  : Using default innermost maximum threshold i_radial=  2 for radial functions.
  Species Se                  : Default cutoff onset for free atom density etc. : 0.40000000E+01 AA.
  Species Se                  : Basic radial grid will be enhanced according to radial_multiplier =   2, to contain   111 grid points.
 
  Finished reading input file 'control.in'. Consistency checks are next.
 
  MPI_IN_PLACE appears to work with this MPI implementation.
  | Keeping use_mpi_in_place .true. (see manual).
  Target number of points in a grid batch is not set. Defaulting to  100
  Method for grid partitioning is not set. Defaulting to parallel hash+maxmin partitioning.
  Batch size limit is not set. Defaulting to    200
  By default, will store active basis functions for each batch.
  If in need of memory, prune_basis_once .false. can be used to disable this option.
  communication_type for Hartree potential was not specified.
  Defaulting to calc_hartree .
  Defaulting to Pulay charge density mixer.
  Pulay mixer: Number of relevant iterations not set.
  Defaulting to    8 iterations.
  Pulay mixer: Number of initial linear mixing iterations not set.
  Defaulting to    0 iterations.
  Work space size for distributed Hartree potential not set.
  Defaulting to   0.200000E+03 MB.
  Mixing parameter for charge density mixing has not been set.
  Using default: charge_mix_param =     0.0500.
  The mixing parameter will be adjusted in iteration number     3 of each s.c.f. cycle (i.e., each geometry step).
  Algorithm-dependent basis array size parameters:
  | n_max_pulay                         :        8
  Maximum number of self-consistency iterations not provided.
  Presetting  1000 iterations.
  Presetting      1001 iterations before the initial mixing cycle
  is restarted anyway using the sc_init_iter criterion / keyword.
  Presetting a factor      1.000 between actual scf density residual
  and density convergence criterion sc_accuracy_rho below which sc_init_iter
  takes no effect.
 * No s.c.f. convergence criteria (sc_accuracy_*) were provided in control.in.
 * The run will proceed with a reasonable default guess, but please check whether.
 * the s.c.f. cycles seem to take too much or too little time.
  No maximum number of relaxation steps, defaulting to     1000
  Using explicit Hessian from geometry.in.
  Maximum energy tolerance by which TRM/BFGS trajectory may increase over multiple steps:   0.300000E-02
  No trust radius initializer. Defaulting to   0.200000E+00 A.
  Unit cell relaxation: Unit cell will be relaxed fully.
  Unit cell relaxation: Analytical stress will be used.
  Analytical stress will be computed.
  Analytical stress calculation: Only the upper triangle is calculated.
                                 Final output is symmetrized.
  Analytical stress calculation: scf convergence accuracy of stress not set.
                                 Analytical stress self-consistency will not be checked explicitly.
                                 Be sure to set other criteria like sc_accuracy_rho tight enough.
 * Notice: The s.c.f. convergence criterion sc_accuracy_rho was not provided.
 * We used to stop in this case, and ask the user to provide reasonable
 * scf convergence criteria. However, this led some users to employ criteria
 * that led to extremely long run times, e.g., for simple relaxation.
 * We now preset a default value for sc_accuracy_rho if it is not set.
 * You may still wish to check if this setting is too tight or too loose for your needs.
 * Based on n_atoms, FHI-aims chose sc_accuracy_rho =  0.141421E-05 .
  Force calculation: scf convergence accuracy of forces not set.
  Defaulting to 'sc_accuracy_forces not_checked'.
  Handling of forces: Unphysical translation and rotation will be removed from forces.
  No accuracy limit for integral partition fn. given. Defaulting to  0.1000E-14.
  No threshold value for u(r) in integrations given. Defaulting to  0.1000E-05.
  No occupation type (smearing scheme) given. Defaulting to Gaussian broadening, width =  0.1000E-01 eV.
  The width will be adjusted in iteration number     3 of each s.c.f. cycle (i.e., each geometry step).
  S.C.F. convergence parameters will be adjusted in iteration number     3 of the first full s.c.f. cycle only.
  No accuracy for occupation numbers given. Defaulting to  0.1000E-12.
  No threshold value for occupation numbers given. Defaulting to  0.0000E+00.
  No accuracy for fermi level given. Defaulting to  0.1000E-19.
  Maximum # of iterations to find E_F not set. Defaulting to  200.
  Preferred method for the eigenvalue solver ('KS_method') not specified in 'control.in'.
  Defaulting to serial version, LAPACK (via ELSI), since more k-points than CPUs available.
  Will not use alltoall communication since running on < 1024 CPUs.
  Threshold for basis singularities not set.
  Default threshold for basis singularities:  0.1000E-04
  partition_type (choice of integration weights) for integrals was not specified.
  | Using a version of the partition function of Stratmann and coworkers ('stratmann_sparse').
  | At each grid point, the set of atoms used to build the partition table is smoothly restricted to
  | only those atoms whose free-atom density would be non-zero at that grid point.
  Partitioning for Hartree potential was not defined. Using partition_type for integrals.
  | Adjusted default value of keyword multip_moments_threshold to:       0.10000000E-11
  | This value may affect high angular momentum components of the Hartree potential in periodic systems.
  Angular momentum expansion for Kerker preconditioner not set explicitly.
  | Using default value of   0
  No explicit requirement for turning off preconditioner.
  | By default, it will be turned off when the charge convergence reaches
  | sc_accuracy_rho  =   0.141421E-05
  No special mixing parameter while Kerker preconditioner is on.
  Using default: charge_mix_param =     0.0500.
  No q(lm)/r^(l+1) cutoff set for long-range Hartree potential.
  | Using default value of  0.100000E-09 .
  | Verify using the multipole_threshold keyword.
  Defaulting to new monopole extrapolation.
  Density update method: automatic selection selected.
  Using density matrix based charge density update.
  Using density matrix based charge density update.
  Using packed matrix style: index .
  Geometry relaxation: A file "geometry.in.next_step" is written out by default after each step.
  | This file contains the geometry of the current relaxation step as well as
  | the current Hessian matrix needed to restart the relaxation algorithm.
  | If you do not want part or all of this information, use the keywords
  | "write_restart_geometry" or "hessian_to_restart_geometry" to switch the output off.
  Defaulting to use time-reversal symmetry for k-point grid.
  Charge integration errors on the 3D integration grid will be compensated
  by explicit normalization and distribution of residual charges.
  Use the "compensate_multipole_errors" flag to change this behaviour.
------------------------------------------------------------


------------------------------------------------------------
          Reading geometry description geometry.in.
------------------------------------------------------------
  Input structure read successfully.
  The structure contains       12 atoms,  and a total of        456.000 electrons.

  Input geometry:
  | Unit cell:
  |        5.83778932        0.00000000        0.00000000
  |        0.00000000        5.95031556        0.00000000
  |        0.00000000        0.00000000        7.51814442
  | Atomic structure:
  |       Atom                x [A]            y [A]            z [A]
  |    1: Species Pd            2.92560456        0.00248789        0.00224417
  |    2: Species Pd            0.00243267        0.00287674        3.76942221
  |    3: Species Pd            0.00305562        2.98196643        0.00242686
  |    4: Species Pd            2.92623294        2.98234844        3.76924952
  |    5: Species Se            3.57789281        0.70588129        3.03504686
  |    6: Species Se            5.19731296        5.25852997        6.79891339
  |    7: Species Se            0.65476703        2.27929462        4.50161731
  |    8: Species Se            2.27342209        3.68557256        0.73621948
  |    9: Species Se            2.27377767        5.25861815        4.50166166
  |   10: Species Se            0.65472611        0.70639213        0.73644893
  |   11: Species Se            5.19693129        3.68505066        3.03513279
  |   12: Species Se            3.57795206        2.27916883        6.79913472

  Lattice parameters for 3D lattice (in Angstroms) :     5.837789    5.950316    7.518144
  Angle(s) between unit vectors (in degrees)       :    90.000000   90.000000   90.000000

  | The smallest distance between any two atoms is         2.39821903 AA.
  | The first atom of this pair is atom number                      6 .
  | The second atom of this pair is atom number                    10 .
  | Wigner-Seitz cell of the first atom image           0     0     0 .
  | (The Wigner-Seitz cell of the second atom is 0 0 0  by definition.)

  Symmetry information by spglib:
  | Precision set to  0.1E-04
  | Number of Operations  : 1
  | Space group           : 1
  | International         : P1 7     H
  | Schoenflies           : C1^1

  Quantities derived from the lattice vectors:
  | Reciprocal lattice vector 1:  1.076295  0.000000  0.000000
  | Reciprocal lattice vector 2:  0.000000  1.055942  0.000000
  | Reciprocal lattice vector 3:  0.000000  0.000000  0.835736
  | Unit cell volume                               :   0.261155E+03  A^3

  Range separation radius for Ewald summation (hartree_convergence_parameter):      4.00931623 bohr.

  Fractional coordinates:
                         L1                L2                L3
       atom_frac         0.50114939        0.00041811        0.00029850  Pd
       atom_frac         0.00041671        0.00048346        0.50137667  Pd
       atom_frac         0.00052342        0.50114425        0.00032280  Pd
       atom_frac         0.50125703        0.50120845        0.50135370  Pd
       atom_frac         0.61288488        0.11862922        0.40369627  Se
       atom_frac         0.89028786        0.88373968        0.90433397  Se
       atom_frac         0.11216010        0.38305441        0.59876707  Se
       atom_frac         0.38943202        0.61939111        0.09792569  Se
       atom_frac         0.38949293        0.88375450        0.59877297  Se
       atom_frac         0.11215309        0.11871507        0.09795621  Se
       atom_frac         0.89022248        0.61930340        0.40370770  Se
       atom_frac         0.61289503        0.38303327        0.90436341  Se

  Number of empty states per atom not set in control.in - providing a guess from actual geometry.
  | Total number of empty states used during s.c.f. cycle:       66
  If you use a very high smearing, use empty_states (per atom!) in control.in to increase this value.

  Structure-dependent array size parameters: 
  | Maximum number of distinct radial functions  :       27
  | Maximum number of basis functions            :      468
  | Number of Kohn-Sham states (occupied + empty):      294
------------------------------------------------------------

------------------------------------------------------------
          Preparing all fixed parts of the calculation.
------------------------------------------------------------
  Determining machine precision:
    2.225073858507201E-308
  Setting up grids for atomic and cluster calculations.

  Creating wave function, potential, and density for free atoms.

  Species: Pd

  List of occupied orbitals and eigenvalues:
    n    l              occ      energy [Ha]    energy [eV]
    1    0           2.0000      -913.269104    -24851.3168
    2    0           2.0000      -130.434372     -3549.2998
    3    0           2.0000       -23.521804      -640.0609
    4    0           2.0000        -3.256918       -88.6253
    5    0           1.0000        -0.157260        -4.2793
    2    1           6.0000      -116.910756     -3181.3035
    3    1           6.0000       -19.103344      -519.8284
    4    1           6.0000        -1.998052       -54.3697
    3    2          10.0000       -12.098182      -329.2083
    4    2           9.0000        -0.243389        -6.6230


  Species: Se

  List of occupied orbitals and eigenvalues:
    n    l              occ      energy [Ha]    energy [eV]
    1    0           2.0000      -466.337810    -12689.6975
    2    0           2.0000       -59.202598     -1610.9847
    3    0           2.0000        -7.847116      -213.5309
    4    0           2.0000        -0.634372       -17.2621
    2    1           6.0000       -52.061107     -1416.6548
    3    1           6.0000        -5.620941      -152.9536
    4    1           4.0000        -0.238469        -6.4891
    3    2          10.0000        -1.951949       -53.1152

  Creating fixed part of basis set: Ionic, confined, hydrogenic.
 
  Pd                   ion:

  List of free ionic orbitals and eigenvalues:
    n    l      energy [Ha]    energy [eV]
    1    0      -914.099884    -24873.9234
    2    0      -131.248265     -3571.4470
    3    0       -24.332473      -662.1203
    4    0        -4.059276      -110.4585
    2    1      -117.724296     -3203.4411
    3    1       -19.913908      -541.8850
    4    1        -2.795328       -76.0648
    3    2       -12.908733      -351.2645
    4    2        -1.004248       -27.3270


  List of ionic basis orbitals and eigenvalues:
    n    l      energy [Ha]    energy [eV]    outer radius [A]
    5    1        -0.516938       -14.0666       5.427025

 
  Pd                   hydrogenic:
 
  List of hydrogenic basis orbitals: 
    n    l      effective z      eigenvalue [eV]  inner max. [A]     outer max. [A]     outer radius [A]   
    4    3         8.000000       -54.4226           1.054686           1.054686           4.629581
    5    4        10.000000       -54.4226           1.330451           1.330451           5.043202
    3    0         2.600000        -9.8948           0.150992           2.606197           5.493778
    3    2         2.500000        -9.3396           1.873517           1.873517           5.493778
 
 
  Se                   ion:

  List of free ionic orbitals and eigenvalues:
    n    l      energy [Ha]    energy [eV]
    1    0      -467.261007    -12714.8189
    2    0       -60.104893     -1635.5374
    3    0        -8.743714      -237.9286
    4    0        -1.414053       -38.4783
    2    1       -52.964156     -1441.2280
    3    1        -6.516916      -177.3343
    4    1        -0.961869       -26.1738
    3    2        -2.844511       -77.4031


  List of ionic basis orbitals and eigenvalues:
    n    l      energy [Ha]    energy [eV]    outer radius [A]
    4    0        -1.414046       -38.4782       4.083166

 
  Se                   hydrogenic:
 
  List of hydrogenic basis orbitals: 
    n    l      effective z      eigenvalue [eV]  inner max. [A]     outer max. [A]     outer radius [A]   
    3    2         4.300000       -27.9518           1.103845           1.103845           5.278265
    2    1         1.600000        -8.6828           1.326010           1.326010           5.475439
    4    3         7.200000       -44.0822           1.173422           1.173422           4.965294
 

  Adding cutoff potential to free-atom effective potential.
  Creating atomic-like basis functions for current effective potential.

  Species Pd                  :

  List of atomic basis orbitals and eigenvalues:
    n    l      energy [Ha]    energy [eV]    outer radius [A]
    1    0      -913.269104    -24851.3168       0.223280
    2    0      -130.434372     -3549.2998       0.615909
    3    0       -23.521804      -640.0609       1.414312
    4    0        -3.256918       -88.6253       3.581357
    5    0        -0.157260        -4.2793       5.427025
    2    1      -116.910756     -3181.3035       0.631154
    3    1       -19.103344      -519.8284       1.540671
    4    1        -1.998052       -54.3697       4.408641
    3    2       -12.098182      -329.2083       1.806051
    4    2        -0.243389        -6.6230       5.361084


  Species Se                  :

  List of atomic basis orbitals and eigenvalues:
    n    l      energy [Ha]    energy [eV]    outer radius [A]
    1    0      -466.337810    -12689.6975       0.309561
    2    0       -59.202598     -1610.9847       0.885812
    3    0        -7.847116      -213.5309       2.355489
    4    0        -0.634372       -17.2621       5.214131
    2    1       -52.061107     -1416.6548       0.907737
    3    1        -5.620941      -152.9536       2.694529
    4    1        -0.238469        -6.4891       5.408909
    3    2        -1.951949       -53.1152       4.083166

  Assembling full basis from fixed parts.
  | Species Pd :   atomic orbital   1 s accepted.
  | Species Pd :   atomic orbital   2 s accepted.
  | Species Pd :   atomic orbital   3 s accepted.
  | Species Pd :   atomic orbital   4 s accepted.
  | Species Pd :   atomic orbital   5 s accepted.
  | Species Pd :    hydro orbital   3 s accepted.
  | Species Pd :   atomic orbital   2 p accepted.
  | Species Pd :   atomic orbital   3 p accepted.
  | Species Pd :   atomic orbital   4 p accepted.
  | Species Pd :    ionic orbital   5 p accepted.
  | Species Pd :   atomic orbital   3 d accepted.
  | Species Pd :   atomic orbital   4 d accepted.
  | Species Pd :    hydro orbital   3 d accepted.
  | Species Pd :    hydro orbital   4 f accepted.
  | Species Pd :    hydro orbital   5 g accepted.
  | Species Se :   atomic orbital   1 s accepted.
  | Species Se :   atomic orbital   2 s accepted.
  | Species Se :   atomic orbital   3 s accepted.
  | Species Se :    ionic orbital   4 s accepted.
  | Species Se :   atomic orbital   4 s accepted.
  | Species Se :   atomic orbital   2 p accepted.
  | Species Se :   atomic orbital   3 p accepted.
  | Species Se :   atomic orbital   4 p accepted.
  | Species Se :    hydro orbital   2 p accepted.
  | Species Se :   atomic orbital   3 d accepted.
  | Species Se :    hydro orbital   3 d accepted.
  | Species Se :    hydro orbital   4 f accepted.
 
  Basis size parameters after reduction:
  | Total number of radial functions:       27
  | Total number of basis functions :      468
 
  Per-task memory consumption for arrays in subroutine allocate_ext:
  |           9.993344MB.
  Testing on-site integration grid accuracy.
  |  Species  Function  <phi|h_atom|phi> (log., in eV)  <phi|h_atom|phi> (rad., in eV)
           1        1             -24851.3167505682             -24851.3148165635
           1        2              -3549.2998457785              -3549.2998098031
           1        3               -640.0608571327               -640.0608534886
           1        4                -88.6252603131                -88.6252593316
           1        5                 -4.2849374515                 -4.2849400622
           1        6                  4.9432123540                  4.9432188418
           1        7              -3181.3035399559              -3181.3035364574
           1        8               -519.8284281886               -519.8284264063
           1        9                -54.3697495804                -54.3697489261
           1       10                  0.8628369484                  0.8628370487
           1       11               -329.2082917394               -329.2082912864
           1       12                 -6.6230267036                 -6.6230265076
           1       13                  5.4924295291                  5.4924115607
           1       14                 25.0740861942                 25.0740861175
           1       15                 38.8271273823                 38.8271278029
           2       16             -12689.6974611609             -12689.6967666984
           2       17              -1610.9846578580              -1610.9846472470
           2       18               -213.5308789869               -213.5308777267
           2       19                -17.0464428502                -17.0464426496
           2       20                  6.7356859379                  6.7356842047
           2       21              -1416.6548010133              -1416.6548002108
           2       22               -152.9535734377               -152.9535727493
           2       23                 -6.4896265677                 -6.4896303794
           2       24                  5.2703037283                  5.2701679583
           2       25                -53.1152220964                -53.1152219035
           2       26                  7.6186674138                  7.6186665630
           2       27                 23.1072799052                 23.1072803137

  Preparing densities etc. for the partition functions (integrals / Hartree potential).

  Preparations completed.
  max(cpu_time)          :      0.549 s.
  Wall clock time (cpu1) :      0.622 s.
------------------------------------------------------------

------------------------------------------------------------
          Begin self-consistency loop: Initialization.

          Date     :  20200420, Time     :  113519.786
------------------------------------------------------------

  Initializing index lists of integration centers etc. from given atomic structure:
  Mapping all atomic coordinates to central unit cell.

  Initializing the k-points
  Using symmetry for reducing the k-points
  | k-points reduced from:     4860 to     2432
  | Number of k-points                             :      2432
  The eigenvectors in the calculations are COMPLEX.
  | K-points in task   0:       101
  | K-points in task   1:       102
  | K-points in task   2:       102
  | K-points in task   3:       102
  | K-points in task   4:       102
  | K-points in task   5:       102
  | K-points in task   6:       102
  | K-points in task   7:       102
  | K-points in task   8:       102
  | K-points in task   9:       101
  | K-points in task  10:       101
  | K-points in task  11:       101
  | K-points in task  12:       101
  | K-points in task  13:       101
  | K-points in task  14:       101
  | K-points in task  15:       101
  | K-points in task  16:       101
  | K-points in task  17:       101
  | K-points in task  18:       101
  | K-points in task  19:       101
  | K-points in task  20:       101
  | K-points in task  21:       101
  | K-points in task  22:       101
  | K-points in task  23:       101
  | Number of basis functions in the Hamiltonian integrals :      5574
  | Number of basis functions in a single unit cell        :       468
  | Number of centers in hartree potential         :      1309
  | Number of centers in hartree multipole         :       763
  | Number of centers in electron density summation:       591
  | Number of centers in basis integrals           :       639
  | Number of centers in integrals                 :       235
  | Number of centers in hamiltonian               :       593
  | Consuming       3268 KiB for k_phase.
  | Number of super-cells (origin) [n_cells]                     :         567
  | Number of super-cells (after PM_index) [n_cells]             :          86
  | Number of super-cells in hamiltonian [n_cells_in_hamiltonian]:          86
  | Size of matrix packed + index [n_hamiltonian_matrix_size] :     1284846

  Initializing relaxation algorithms.
  | Estimated reciprocal-space cutoff momentum G_max:         2.42200146 bohr^-1 .
  | Reciprocal lattice points for long-range Hartree potential:     410
  Partitioning the integration grid into batches with parallel hashing+maxmin method.
  | Number of batches:     4176
  | Maximal batch size:     110
  | Minimal batch size:      49
  | Average batch size:      91.987
  | Standard deviation of batch sizes:      11.407

  Integration load balanced across    24 MPI tasks.
  Work distribution over tasks is as follows:
  Task     0 has      15982 integration points.
  Task     1 has      16000 integration points.
  Task     2 has      16014 integration points.
  Task     3 has      15995 integration points.
  Task     4 has      15972 integration points.
  Task     5 has      16000 integration points.
  Task     6 has      16024 integration points.
  Task     7 has      16017 integration points.
  Task     8 has      16010 integration points.
  Task     9 has      15996 integration points.
  Task    10 has      16005 integration points.
  Task    11 has      16046 integration points.
  Task    12 has      16016 integration points.
  Task    13 has      16024 integration points.
  Task    14 has      15972 integration points.
  Task    15 has      16009 integration points.
  Task    16 has      15972 integration points.
  Task    17 has      16043 integration points.
  Task    18 has      16013 integration points.
  Task    19 has      16007 integration points.
  Task    20 has      16042 integration points.
  Task    21 has      15995 integration points.
  Task    22 has      15999 integration points.
  Task    23 has      15983 integration points.
  Initializing partition tables, free-atom densities, potentials, etc. across the integration grid (initialize_grid_storage).
  | initialize_grid_storage: Actual outermost partition radius vs. multipole_radius_free
  | (-- VB: in principle, multipole_radius_free should be larger, hence this output)
  | Species        1: Confinement radius =              6.000000000000000 AA, multipole_radius_free =              6.058219618167466 AA.
  | Species        1: outer_partition_radius set to              6.058219618167466 AA .
  | Species        2: Confinement radius =              6.000000000000000 AA, multipole_radius_free =              6.037996416842453 AA.
  | Species        2: outer_partition_radius set to              6.037996416842453 AA .
  | The sparse table of interatomic distances needs       2887.29 kbyte instead of      3266.57 kbyte of memory.
  | Net number of integration points:   384136
  | of which are non-zero points    :   322288
  | Numerical average free-atom electrostatic potential    :    -16.95709373 eV
  Renormalizing the initial density to the exact electron count on the 3D integration grid.
  | Initial density: Formal number of electrons (from input files) :     456.0000000000
  | Integrated number of electrons on 3D grid     :     456.0000238505
  | Charge integration error                      :       0.0000238505
  | Normalization factor for density and gradient :       0.9999999477
  Renormalizing the free-atom superposition density to the exact electron count on the 3D integration grid.
  | Formal number of electrons (from input files) :     456.0000000000
  | Integrated number of electrons on 3D grid     :     456.0000238505
  | Charge integration error                      :       0.0000238505
  | Normalization factor for density and gradient :       0.9999999477
  Obtaining max. number of non-zero basis functions in each batch (get_n_compute_maxes).
  | Maximal number of non-zero basis functions:     1006 in task     0
  | Maximal number of non-zero basis functions:     1007 in task     1
  | Maximal number of non-zero basis functions:     1032 in task     2
  | Maximal number of non-zero basis functions:     1015 in task     3
  | Maximal number of non-zero basis functions:      996 in task     4
  | Maximal number of non-zero basis functions:     1017 in task     5
  | Maximal number of non-zero basis functions:     1034 in task     6
  | Maximal number of non-zero basis functions:     1022 in task     7
  | Maximal number of non-zero basis functions:     1007 in task     8
  | Maximal number of non-zero basis functions:     1009 in task     9
  | Maximal number of non-zero basis functions:     1014 in task    10
  | Maximal number of non-zero basis functions:     1013 in task    11
  | Maximal number of non-zero basis functions:     1011 in task    12
  | Maximal number of non-zero basis functions:     1028 in task    13
  | Maximal number of non-zero basis functions:     1012 in task    14
  | Maximal number of non-zero basis functions:     1024 in task    15
  | Maximal number of non-zero basis functions:     1006 in task    16
  | Maximal number of non-zero basis functions:     1031 in task    17
  | Maximal number of non-zero basis functions:     1037 in task    18
  | Maximal number of non-zero basis functions:     1026 in task    19
  | Maximal number of non-zero basis functions:      996 in task    20
  | Maximal number of non-zero basis functions:     1032 in task    21
  | Maximal number of non-zero basis functions:     1011 in task    22
  | Maximal number of non-zero basis functions:     1008 in task    23
  Allocating      212.048 MB for KS_eigenvector_complex
  Integrating Hamiltonian matrix: batch-based integration.
  Time summed over all CPUs for integration: real work       63.094 s, elapsed       64.272 s
  Integrating overlap matrix.
  Time summed over all CPUs for integration: real work       45.612 s, elapsed       46.299 s
  Decreasing sparse matrix size:
  | Tolerance:  0.1000E-12
  Hamiltonian matrix
  | Array has  1112052 nonzero elements out of  1284846 elements
  | Sparsity factor is 0.134
  Overlap matrix
  | Array has  1027649 nonzero elements out of  1284846 elements
  | Sparsity factor is 0.200
  New size of hamiltonian matrix:     1112122

  Updating Kohn-Sham eigenvalues and eigenvectors using ELSI and the (modified) LAPACK eigensolver.
  Singularity check in k-point 24, task 0 (analysis for other k-points/tasks may follow below):
  Overlap matrix is not singular
  | Lowest and highest eigenvalues :  0.6037E-03,  0.7246E+01
  Finished singularity check of overlap matrix
  | Time :     0.072 s
  Starting LAPACK eigensolver
  Finished Cholesky decomposition
  | Time :     0.017 s
  Finished transformation to standard eigenproblem
  | Time :     0.021 s
  Finished solving standard eigenproblem
  | Time :     0.072 s
  Finished back-transformation of eigenvectors
  | Time :     0.008 s

  Obtaining occupation numbers and chemical potential using ELSI.
  | Chemical potential (Fermi level):    -4.66217696 eV
  Writing Kohn-Sham eigenvalues.
  K-point:       1 at    0.000000    0.000000    0.000000 (in units of recip. lattice)

  State    Occupation    Eigenvalue [Ha]    Eigenvalue [eV]
      1       2.00000        -913.279597       -24851.60228
      2       2.00000        -913.279583       -24851.60190
      3       2.00000        -913.279576       -24851.60169
      4       2.00000        -913.279424       -24851.59755
      5       2.00000        -466.350462       -12690.04173
      6       2.00000        -466.350387       -12690.03970
      7       2.00000        -466.350313       -12690.03768
      8       2.00000        -466.350312       -12690.03764
      9       2.00000        -466.350310       -12690.03761
     10       2.00000        -466.350275       -12690.03665
     11       2.00000        -466.350244       -12690.03580
     12       2.00000        -466.350207       -12690.03479
     13       2.00000        -130.445182        -3549.59401
     14       2.00000        -130.445168        -3549.59363
     15       2.00000        -130.445160        -3549.59341
     16       2.00000        -130.445007        -3549.58924
     17       2.00000        -116.921591        -3181.59837
     18       2.00000        -116.921582        -3181.59812
     19       2.00000        -116.921577        -3181.59798
     20       2.00000        -116.921569        -3181.59777
     21       2.00000        -116.921568        -3181.59775
     22       2.00000        -116.921560        -3181.59752
     23       2.00000        -116.921526        -3181.59661
     24       2.00000        -116.921512        -3181.59623
     25       2.00000        -116.921505        -3181.59602
     26       2.00000        -116.921415        -3181.59359
     27       2.00000        -116.921407        -3181.59335
     28       2.00000        -116.921352        -3181.59186
     29       2.00000         -59.215678        -1611.34058
     30       2.00000         -59.215602        -1611.33851
     31       2.00000         -59.215527        -1611.33648
     32       2.00000         -59.215525        -1611.33641
     33       2.00000         -59.215524        -1611.33638
     34       2.00000         -59.215488        -1611.33541
     35       2.00000         -59.215456        -1611.33455
     36       2.00000         -59.215419        -1611.33352
     37       2.00000         -52.074194        -1417.01091
     38       2.00000         -52.074170        -1417.01027
     39       2.00000         -52.074120        -1417.00889
     40       2.00000         -52.074119        -1417.00886
     41       2.00000         -52.074093        -1417.00816
     42       2.00000         -52.074043        -1417.00681
     43       2.00000         -52.074043        -1417.00680
     44       2.00000         -52.074042        -1417.00679
     45       2.00000         -52.074041        -1417.00676
     46       2.00000         -52.074020        -1417.00618
     47       2.00000         -52.074015        -1417.00605
     48       2.00000         -52.074015        -1417.00604
     49       2.00000         -52.074005        -1417.00578
     50       2.00000         -52.073979        -1417.00507
     51       2.00000         -52.073973        -1417.00490
     52       2.00000         -52.073969        -1417.00479
     53       2.00000         -52.073967        -1417.00475
     54       2.00000         -52.073966        -1417.00471
     55       2.00000         -52.073948        -1417.00421
     56       2.00000         -52.073936        -1417.00388
     57       2.00000         -52.073931        -1417.00376
     58       2.00000         -52.073910        -1417.00319
     59       2.00000         -52.073900        -1417.00290
     60       2.00000         -52.073862        -1417.00188
     61       2.00000         -23.533382         -640.37591
     62       2.00000         -23.533367         -640.37551
     63       2.00000         -23.533359         -640.37528
     64       2.00000         -23.533195         -640.37083
     65       2.00000         -19.115183         -520.15061
     66       2.00000         -19.115165         -520.15011
     67       2.00000         -19.115160         -520.14998
     68       2.00000         -19.115095         -520.14819
     69       2.00000         -19.115082         -520.14785
     70       2.00000         -19.115069         -520.14750
     71       2.00000         -19.114992         -520.14540
     72       2.00000         -19.114905         -520.14303
     73       2.00000         -19.114543         -520.13319
     74       2.00000         -19.114530         -520.13283
     75       2.00000         -19.114522         -520.13261
     76       2.00000         -19.114363         -520.12829
     77       2.00000         -12.109991         -329.52963
     78       2.00000         -12.109976         -329.52920
     79       2.00000         -12.109967         -329.52897
     80       2.00000         -12.109955         -329.52865
     81       2.00000         -12.109939         -329.52822
     82       2.00000         -12.109931         -329.52799
     83       2.00000         -12.109800         -329.52444
     84       2.00000         -12.109765         -329.52347
     85       2.00000         -12.109600         -329.51898
     86       2.00000         -12.109584         -329.51855
     87       2.00000         -12.109578         -329.51839
     88       2.00000         -12.109543         -329.51743
     89       2.00000         -12.109531         -329.51710
     90       2.00000         -12.109520         -329.51680
     91       2.00000         -12.109457         -329.51509
     92       2.00000         -12.109443         -329.51472
     93       2.00000         -12.109435         -329.51449
     94       2.00000         -12.109416         -329.51398
     95       2.00000         -12.109360         -329.51246
     96       2.00000         -12.109275         -329.51015
     97       2.00000          -7.862007         -213.93609
     98       2.00000          -7.861916         -213.93363
     99       2.00000          -7.861839         -213.93153
    100       2.00000          -7.861830         -213.93127
    101       2.00000          -7.861829         -213.93126
    102       2.00000          -7.861789         -213.93017
    103       2.00000          -7.861754         -213.92921
    104       2.00000          -7.861712         -213.92808
    105       2.00000          -5.636422         -153.37485
    106       2.00000          -5.636348         -153.37283
    107       2.00000          -5.636257         -153.37035
    108       2.00000          -5.636255         -153.37029
    109       2.00000          -5.636245         -153.37004
    110       2.00000          -5.636209         -153.36904
    111       2.00000          -5.636173         -153.36807
    112       2.00000          -5.636164         -153.36784
    113       2.00000          -5.636126         -153.36679
    114       2.00000          -5.636065         -153.36514
    115       2.00000          -5.635990         -153.36310
    116       2.00000          -5.635964         -153.36237
    117       2.00000          -5.635951         -153.36202
    118       2.00000          -5.635943         -153.36181
    119       2.00000          -5.635866         -153.35972
    120       2.00000          -5.635834         -153.35885
    121       2.00000          -5.635479         -153.34917
    122       2.00000          -5.635389         -153.34675
    123       2.00000          -5.635318         -153.34480
    124       2.00000          -5.635317         -153.34479
    125       2.00000          -5.635311         -153.34462
    126       2.00000          -5.635276         -153.34367
    127       2.00000          -5.635247         -153.34287
    128       2.00000          -5.635204         -153.34171
    129       2.00000          -3.274083          -89.09234
    130       2.00000          -3.274062          -89.09177
    131       2.00000          -3.274050          -89.09143
    132       2.00000          -3.273811          -89.08494
    133       2.00000          -2.020477          -54.97997
    134       2.00000          -2.020448          -54.97918
    135       2.00000          -2.020404          -54.97799
    136       2.00000          -2.020110          -54.96999
    137       2.00000          -2.019458          -54.95226
    138       2.00000          -2.019452          -54.95209
    139       2.00000          -2.019381          -54.95016
    140       2.00000          -2.019106          -54.94266
    141       2.00000          -2.013059          -54.77814
    142       2.00000          -2.013052          -54.77793
    143       2.00000          -2.013043          -54.77768
    144       2.00000          -2.012831          -54.77192
    145       2.00000          -1.969443          -53.59127
    146       2.00000          -1.969308          -53.58759
    147       2.00000          -1.969200          -53.58466
    148       2.00000          -1.969173          -53.58392
    149       2.00000          -1.968360          -53.56180
    150       2.00000          -1.968272          -53.55940
    151       2.00000          -1.968164          -53.55647
    152       2.00000          -1.968144          -53.55592
    153       2.00000          -1.967886          -53.54890
    154       2.00000          -1.967852          -53.54798
    155       2.00000          -1.967769          -53.54571
    156       2.00000          -1.967746          -53.54509
    157       2.00000          -1.967731          -53.54468
    158       2.00000          -1.967708          -53.54405
    159       2.00000          -1.967600          -53.54113
    160       2.00000          -1.967590          -53.54084
    161       2.00000          -1.967463          -53.53738
    162       2.00000          -1.967425          -53.53636
    163       2.00000          -1.967407          -53.53587
    164       2.00000          -1.967360          -53.53458
    165       2.00000          -1.967336          -53.53394
    166       2.00000          -1.967321          -53.53354
    167       2.00000          -1.967294          -53.53281
    168       2.00000          -1.967291          -53.53271
    169       2.00000          -1.967271          -53.53216
    170       2.00000          -1.967269          -53.53212
    171       2.00000          -1.967258          -53.53181
    172       2.00000          -1.967244          -53.53143
    173       2.00000          -1.967196          -53.53012
    174       2.00000          -1.967186          -53.52986
    175       2.00000          -1.967174          -53.52954
    176       2.00000          -1.967143          -53.52870
    177       2.00000          -1.966775          -53.51867
    178       2.00000          -1.966724          -53.51728
    179       2.00000          -1.966637          -53.51492
    180       2.00000          -1.966625          -53.51458
    181       2.00000          -1.966420          -53.50900
    182       2.00000          -1.966378          -53.50786
    183       2.00000          -1.966287          -53.50539
    184       2.00000          -1.966282          -53.50525
    185       2.00000          -0.759494          -20.66689
    186       2.00000          -0.741663          -20.18168
    187       2.00000          -0.720755          -19.61274
    188       2.00000          -0.718907          -19.56246
    189       2.00000          -0.652516          -17.75586
    190       2.00000          -0.640542          -17.43003
    191       2.00000          -0.638889          -17.38505
    192       2.00000          -0.627680          -17.08005
    193       2.00000          -0.418728          -11.39417
    194       2.00000          -0.410912          -11.18149
    195       2.00000          -0.388787          -10.57943
    196       2.00000          -0.376627          -10.24854
    197       2.00000          -0.370443          -10.08026
    198       2.00000          -0.368781          -10.03503
    199       2.00000          -0.367510          -10.00046
    200       2.00000          -0.366430           -9.97107
    201       2.00000          -0.365364           -9.94207
    202       2.00000          -0.363594           -9.89390
    203       2.00000          -0.360774           -9.81717
    204       2.00000          -0.351983           -9.57796
    205       2.00000          -0.340829           -9.27444
    206       2.00000          -0.330306           -8.98807
    207       2.00000          -0.323330           -8.79825
    208       2.00000          -0.315795           -8.59321
    209       2.00000          -0.314979           -8.57101
    210       2.00000          -0.306760           -8.34736
    211       2.00000          -0.288641           -7.85433
    212       2.00000          -0.286294           -7.79046
    213       2.00000          -0.285380           -7.76558
    214       2.00000          -0.280244           -7.62582
    215       2.00000          -0.278939           -7.59032
    216       2.00000          -0.277260           -7.54463
    217       2.00000          -0.276436           -7.52222
    218       2.00000          -0.275926           -7.50833
    219       2.00000          -0.273651           -7.44642
    220       2.00000          -0.270451           -7.35936
    221       2.00000          -0.265002           -7.21106
    222       2.00000          -0.262852           -7.15257
    223       2.00000          -0.262747           -7.14972
    224       2.00000          -0.257116           -6.99647
    225       2.00000          -0.225190           -6.12772
    226       2.00000          -0.216029           -5.87845
    227       2.00000          -0.213665           -5.81412
    228       0.00000          -0.167587           -4.56029
    229       0.00000          -0.151252           -4.11579
    230       0.00000          -0.135622           -3.69046
    231       0.00000          -0.130205           -3.54307
    232       0.00000          -0.129320           -3.51897
    233       0.00000          -0.125944           -3.42710
    234       0.00000          -0.115909           -3.15405
    235       0.00000          -0.114563           -3.11741
    236       0.00000          -0.081759           -2.22478
    237       0.00000          -0.037823           -1.02920
    238       0.00000          -0.031460           -0.85608
    239       0.00000          -0.005775           -0.15715
    240       0.00000           0.018027            0.49054
    241       0.00000           0.023980            0.65253
    242       0.00000           0.024746            0.67337
    243       0.00000           0.054924            1.49457
    244       0.00000           0.089257            2.42879
    245       0.00000           0.104669            2.84819
    246       0.00000           0.110786            3.01463
    247       0.00000           0.119675            3.25653
    248       0.00000           0.121420            3.30402
    249       0.00000           0.126126            3.43205
    250       0.00000           0.126497            3.44215
    251       0.00000           0.135534            3.68807
    252       0.00000           0.150633            4.09894
    253       0.00000           0.162295            4.41626
    254       0.00000           0.173267            4.71482
    255       0.00000           0.176842            4.81211
    256       0.00000           0.189405            5.15396
    257       0.00000           0.190809            5.19218
    258       0.00000           0.196175            5.33820
    259       0.00000           0.218928            5.95733
    260       0.00000           0.232093            6.31557
    261       0.00000           0.248083            6.75068
    262       0.00000           0.257181            6.99826
    263       0.00000           0.266448            7.25042
    264       0.00000           0.280365            7.62911
    265       0.00000           0.281671            7.66465
[...]

  Lowest unoccupied state (CBM) at    -4.86558040 eV (relative to internal zero)
  | Occupation number:      0.72613930
  | K-point:    2368 at    0.944444    0.000000    0.866667 (in units of recip. lattice)

  ESTIMATED overall HOMO-LUMO gap:      0.00282887 eV between HOMO at k-point 349 and LUMO at k-point 2368
  | This appears to be an indirect band gap.
  | Smallest direct gap :      0.00566941 eV for k_point 1665 at    0.944444    0.000000    0.866667 (in units of recip. lattice)
  However, this system has fractional occupation numbers. Since we use a finite k-point grid,
  this material is metallic within the approximate finite broadening function (occupation_type)
  applied to determine the occupation numbers.

  Checking to see if s.c.f. parameters should be adjusted.
  Adjusted the Pulay mixing parameter (charge_mix_param) for an expected low-gap system. New value:   0.020000 .
  Adjusted the occupation broadening width for an expected low-gap system. New value:      0.05000000 eV.

  Total energy components:
  | Sum of eigenvalues            :      -23865.51496458 Ha     -649413.70399182 eV
  | XC energy correction          :       -1284.27583284 Ha      -34946.92349148 eV
  | XC potential correction       :        1672.83881896 Ha       45520.26030933 eV
  | Free-atom electrostatic energy:      -16511.28166542 Ha     -449294.83398567 eV
  | Hartree energy correction     :           8.32814503 Ha         226.62035656 eV
  | vdW energy correction         :           0.00000000 Ha           0.00000000 eV
  | Entropy correction            :          -0.00004136 Ha          -0.00112556 eV
  | ---------------------------
  | Total energy                  :      -39979.90549886 Ha    -1087908.58080308 eV
  | Total energy, T -> 0          :      -39979.90554022 Ha    -1087908.58192864 eV  <-- do not rely on this value for anything but (periodic) metals
  | Electronic free energy        :      -39979.90558158 Ha    -1087908.58305420 eV

  Derived energy quantities:
  | Kinetic energy                :       41144.97293851 Ha     1119611.67887188 eV
  | Electrostatic energy          :      -79840.60260453 Ha    -2172573.33618347 eV
  | Energy correction for multipole
  | error in Hartree potential    :          -0.00477567 Ha          -0.12995266 eV
  | Sum of eigenvalues per atom                           :      -54117.80866598 eV
  | Total energy (T->0) per atom                          :      -90659.04849405 eV  <-- do not rely on this value for anything but (periodic) metals
  | Electronic free energy per atom                       :      -90659.04858785 eV

  Self-consistency convergence accuracy:
  | Change of charge density      :  0.1267E+00
  | Change of sum of eigenvalues  :  0.9755E+01 eV
  | Change of total energy        :  0.1118E+00 eV

  End self-consistency iteration #     3       :  max(cpu_time)    wall_clock(cpu1)
  | Time for this iteration                    :       26.616 s          26.617 s
  | Charge density update                      :        7.263 s           7.263 s
  | Density mixing & preconditioning           :        0.785 s           0.785 s
  | Hartree multipole update                   :        0.004 s           0.005 s
  | Hartree multipole summation                :        1.728 s           1.728 s
  | Integration                                :        2.695 s           2.695 s
  | Solution of K.-S. eqns.                    :       14.104 s          14.113 s
  | Total energy evaluation                    :        0.021 s           0.021 s

  Partial memory accounting:
  | Current value for overall tracked memory usage:
  |   Minimum:      233.346 MB (on task  0)
  |   Maximum:      235.446 MB (on task  1)
  |   Average:      234.046 MB
  | Peak value for overall tracked memory usage:
  |   Minimum:      246.762 MB (on task 20 after allocating eval_tmp)
  |   Maximum:      249.524 MB (on task  6 after allocating wave)
  |   Average:      247.807 MB
  | Largest tracked array allocation so far:
  |   Minimum:      212.048 MB (KS_eigenvector_complex on task  0)
  |   Maximum:      214.148 MB (KS_eigenvector_complex on task  1)
  |   Average:      212.748 MB
  Note:  These values currently only include a subset of arrays which are explicitly tracked.
  The "true" memory usage will be greater.
------------------------------------------------------------

------------------------------------------------------------
          Begin self-consistency iteration #    4

  Date     :  20200420, Time     :  113705.069
------------------------------------------------------------
  Evaluating new KS density using the density matrix
  Evaluating density matrix
  Time summed over all CPUs for getting density from density matrix: real work      119.789 s, elapsed      121.957 s
  Integration grid: deviation in total charge (<rho> - N_e) =  -3.699256E-09
  Pulay mixing of updated and previous charge densities.
  Renormalizing the density to the exact electron count on the 3D integration grid.
  | Formal number of electrons (from input files) :     456.0000000000
  | Integrated number of electrons on 3D grid     :     455.9985203483
  | Charge integration error                      :      -0.0014796517
  | Normalization factor for density and gradient :       1.0000032449

  Evaluating partitioned Hartree potential by multipole expansion.
  | Original multipole sum: apparent total charge =   0.159035E-11
  | Sum of charges compensated after spline to logarithmic grids =   0.676517E-07
  | Analytical far-field extrapolation by fixed multipoles:
  | Hartree multipole sum: apparent total charge =   0.159023E-11
  Summing up the Hartree potential.
  Time summed over all CPUs for potential: real work       39.834 s, elapsed       40.637 s
  | RMS charge density error from multipole expansion :   0.681850E-02
  | Average real-space part of the electrostatic potential :     -0.00651198 eV

  Integrating Hamiltonian matrix: batch-based integration.
  Time summed over all CPUs for integration: real work       62.225 s, elapsed       63.372 s

  Updating Kohn-Sham eigenvalues and eigenvectors using ELSI and the (modified) LAPACK eigensolver.
  Starting LAPACK eigensolver
  Finished Cholesky decomposition
  | Time :     0.011 s
  Finished transformation to standard eigenproblem
  | Time :     0.020 s
  Finished solving standard eigenproblem
  | Time :     0.069 s
  Finished back-transformation of eigenvectors
  | Time :     0.009 s

  Obtaining occupation numbers and chemical potential using ELSI.
  | Chemical potential (Fermi level):    -4.82143584 eV
  What follows are estimated values for band gap, HOMO, LUMO, etc.
  | They are estimated on a discrete k-point grid and not necessarily exact.
  | For converged numbers, create a DOS and/or band structure plot on a denser k-grid.

  Highest occupied state (VBM) at     -4.82258909 eV (relative to internal zero)
  | Occupation number:      1.02602142
  | K-point:    1441 at    0.388889    0.444444    0.000000 (in units of recip. lattice)

  Lowest unoccupied state (CBM) at    -4.81937958 eV (relative to internal zero)
  | Occupation number:      0.95362149
  | K-point:     329 at    0.055556    0.944444    0.133333 (in units of recip. lattice)

  ESTIMATED overall HOMO-LUMO gap:      0.00320950 eV between HOMO at k-point 1441 and LUMO at k-point 329
  | This appears to be an indirect band gap.
  | Smallest direct gap :      0.13526079 eV for k_point 1669 at    0.055556    0.944444    0.133333 (in units of recip. lattice)
  However, this system has fractional occupation numbers. Since we use a finite k-point grid,
  this material is metallic within the approximate finite broadening function (occupation_type)
  applied to determine the occupation numbers.

  Total energy components:
  | Sum of eigenvalues            :      -23864.46879852 Ha     -649385.23636475 eV
  | XC energy correction          :       -1284.31666809 Ha      -34948.03467521 eV
  | XC potential correction       :        1672.89122790 Ha       45521.68642914 eV
  | Free-atom electrostatic energy:      -16511.28166542 Ha     -449294.83398567 eV
  | Hartree energy correction     :           7.27082119 Ha         197.84911107 eV
  | vdW energy correction         :           0.00000000 Ha           0.00000000 eV
  | Entropy correction            :          -0.00004155 Ha          -0.00113065 eV
  | ---------------------------
  | Total energy                  :      -39979.90508294 Ha    -1087908.56948541 eV
  | Total energy, T -> 0          :      -39979.90512449 Ha    -1087908.57061606 eV  <-- do not rely on this value for anything but (periodic) metals
  | Electronic free energy        :      -39979.90516604 Ha    -1087908.57174671 eV

  Derived energy quantities:
  | Kinetic energy                :       41145.71653968 Ha     1119631.91328932 eV
  | Electrostatic energy          :      -79841.30495453 Ha    -2172592.44809952 eV
  | Energy correction for multipole
  | error in Hartree potential    :          -0.00513306 Ha          -0.13967775 eV
  | Sum of eigenvalues per atom                           :      -54115.43636373 eV
  | Total energy (T->0) per atom                          :      -90659.04755134 eV  <-- do not rely on this value for anything but (periodic) metals
  | Electronic free energy per atom                       :      -90659.04764556 eV

  Self-consistency convergence accuracy:
  | Change of charge density      :  0.4254E-01
  | Change of sum of eigenvalues  :  0.2847E+02 eV
  | Change of total energy        :  0.1132E-01 eV

  End self-consistency iteration #     4       :  max(cpu_time)    wall_clock(cpu1)
  | Time for this iteration                    :       26.694 s          26.695 s
  | Charge density update                      :        7.279 s           7.279 s
  | Density mixing & preconditioning           :        0.801 s           0.801 s
  | Hartree multipole update                   :        0.004 s           0.005 s
  | Hartree multipole summation                :        1.713 s           1.713 s
  | Integration                                :        2.668 s           2.668 s
  | Solution of K.-S. eqns.                    :       14.196 s          14.201 s
  | Total energy evaluation                    :        0.021 s           0.021 s

  Partial memory accounting:
  | Current value for overall tracked memory usage:
  |   Minimum:      233.346 MB (on task  0)
  |   Maximum:      235.446 MB (on task  1)
  |   Average:      234.046 MB
  | Peak value for overall tracked memory usage:
  |   Minimum:      246.762 MB (on task 20 after allocating eval_tmp)
  |   Maximum:      249.524 MB (on task  6 after allocating wave)
  |   Average:      247.807 MB
  | Largest tracked array allocation so far:
  |   Minimum:      212.048 MB (KS_eigenvector_complex on task  0)
  |   Maximum:      214.148 MB (KS_eigenvector_complex on task  1)
  |   Average:      212.748 MB
  Note:  These values currently only include a subset of arrays which are explicitly tracked.
  The "true" memory usage will be greater.
------------------------------------------------------------

------------------------------------------------------------
          Begin self-consistency iteration #    5

  Date     :  20200420, Time     :  113731.769
------------------------------------------------------------
  Evaluating new KS density using the density matrix
  Evaluating density matrix
  Time summed over all CPUs for getting density from density matrix: real work      119.697 s, elapsed      122.139 s
  Integration grid: deviation in total charge (<rho> - N_e) =  -3.696528E-09
  Pulay mixing of updated and previous charge densities.
  Renormalizing the density to the exact electron count on the 3D integration grid.
  | Formal number of electrons (from input files) :     456.0000000000
  | Integrated number of electrons on 3D grid     :     456.0003531130
  | Charge integration error                      :       0.0003531130
  | Normalization factor for density and gradient :       0.9999992256

  Evaluating partitioned Hartree potential by multipole expansion.
  | Original multipole sum: apparent total charge =   0.122929E-11
  | Sum of charges compensated after spline to logarithmic grids =   0.453944E-07
  | Analytical far-field extrapolation by fixed multipoles:
  | Hartree multipole sum: apparent total charge =   0.122939E-11
  Summing up the Hartree potential.
  Time summed over all CPUs for potential: real work       39.833 s, elapsed       40.627 s
  | RMS charge density error from multipole expansion :   0.688445E-02
  | Average real-space part of the electrostatic potential :     -0.01074332 eV

  Integrating Hamiltonian matrix: batch-based integration.
  Time summed over all CPUs for integration: real work       62.195 s, elapsed       63.196 s

  Updating Kohn-Sham eigenvalues and eigenvectors using ELSI and the (modified) LAPACK eigensolver.
  Starting LAPACK eigensolver
  Finished Cholesky decomposition
  | Time :     0.011 s
  Finished transformation to standard eigenproblem
  | Time :     0.020 s
  Finished solving standard eigenproblem
  | Time :     0.070 s
  Finished back-transformation of eigenvectors
  | Time :     0.009 s

  Obtaining occupation numbers and chemical potential using ELSI.
  | Chemical potential (Fermi level):    -4.84390941 eV
  What follows are estimated values for band gap, HOMO, LUMO, etc.
  | They are estimated on a discrete k-point grid and not necessarily exact.
  | For converged numbers, create a DOS and/or band structure plot on a denser k-grid.

  Highest occupied state (VBM) at     -4.84541916 eV (relative to internal zero)
  | Occupation number:      1.03406115
  | K-point:    1919 at    0.555556    0.388889    0.133333 (in units of recip. lattice)

  Lowest unoccupied state (CBM) at    -4.84126815 eV (relative to internal zero)
  | Occupation number:      0.94044871
  | K-point:     586 at    0.166667    0.222222    0.000000 (in units of recip. lattice)

  ESTIMATED overall HOMO-LUMO gap:      0.00415101 eV between HOMO at k-point 1919 and LUMO at k-point 586
  | This appears to be an indirect band gap.
  | Smallest direct gap :      0.13925298 eV for k_point 1669 at    0.166667    0.222222    0.000000 (in units of recip. lattice)
  However, this system has fractional occupation numbers. Since we use a finite k-point grid,
  this material is metallic within the approximate finite broadening function (occupation_type)
  applied to determine the occupation numbers.

  Total energy components:
  | Sum of eigenvalues            :      -23864.61660839 Ha     -649389.25847586 eV
  | XC energy correction          :       -1284.31319405 Ha      -34947.94014185 eV
  | XC potential correction       :        1672.88588089 Ha       45521.54092949 eV
  | Free-atom electrostatic energy:      -16511.28166542 Ha     -449294.83398567 eV
  | Hartree energy correction     :           7.42062002 Ha         201.92534460 eV
  | vdW energy correction         :           0.00000000 Ha           0.00000000 eV
  | Entropy correction            :          -0.00003858 Ha          -0.00104970 eV
  | ---------------------------
  | Total energy                  :      -39979.90496696 Ha    -1087908.56632929 eV
  | Total energy, T -> 0          :      -39979.90500553 Ha    -1087908.56737899 eV  <-- do not rely on this value for anything but (periodic) metals
  | Electronic free energy        :      -39979.90504411 Ha    -1087908.56842868 eV

  Derived energy quantities:
  | Kinetic energy                :       41145.51303889 Ha     1119626.37575111 eV
  | Electrostatic energy          :      -79841.10481179 Ha    -2172587.00193855 eV
  | Energy correction for multipole
  | error in Hartree potential    :          -0.00505503 Ha          -0.13755438 eV
  | Sum of eigenvalues per atom                           :      -54115.77153966 eV
  | Total energy (T->0) per atom                          :      -90659.04728158 eV  <-- do not rely on this value for anything but (periodic) metals
  | Electronic free energy per atom                       :      -90659.04736906 eV

  Self-consistency convergence accuracy:
  | Change of charge density      :  0.2246E-01
  | Change of sum of eigenvalues  : -0.4022E+01 eV
  | Change of total energy        :  0.3156E-02 eV

  End self-consistency iteration #     5       :  max(cpu_time)    wall_clock(cpu1)
  | Time for this iteration                    :       26.563 s          26.564 s
  | Charge density update                      :        7.305 s           7.305 s
  | Density mixing & preconditioning           :        0.801 s           0.801 s
  | Hartree multipole update                   :        0.004 s           0.004 s
  | Hartree multipole summation                :        1.712 s           1.713 s
  | Integration                                :        2.660 s           2.660 s
  | Solution of K.-S. eqns.                    :       14.018 s          14.052 s
  | Total energy evaluation                    :        0.022 s           0.022 s

  Partial memory accounting:
  | Current value for overall tracked memory usage:
  |   Minimum:      233.346 MB (on task  0)
  |   Maximum:      235.446 MB (on task  1)
  |   Average:      234.046 MB
  | Peak value for overall tracked memory usage:
  |   Minimum:      246.762 MB (on task 20 after allocating eval_tmp)
  |   Maximum:      249.524 MB (on task  6 after allocating wave)
  |   Average:      247.807 MB
  | Largest tracked array allocation so far:
  |   Minimum:      212.048 MB (KS_eigenvector_complex on task  0)
  |   Maximum:      214.148 MB (KS_eigenvector_complex on task  1)
  |   Average:      212.748 MB
  Note:  These values currently only include a subset of arrays which are explicitly tracked.
  The "true" memory usage will be greater.
------------------------------------------------------------

------------------------------------------------------------
          Begin self-consistency iteration #    6

  Date     :  20200420, Time     :  113758.361
------------------------------------------------------------
  Evaluating new KS density using the density matrix
  Evaluating density matrix
  Time summed over all CPUs for getting density from density matrix: real work      119.562 s, elapsed      121.646 s
  Integration grid: deviation in total charge (<rho> - N_e) =  -3.696755E-09
  Pulay mixing of updated and previous charge densities.
  Renormalizing the density to the exact electron count on the 3D integration grid.
  | Formal number of electrons (from input files) :     456.0000000000
  | Integrated number of electrons on 3D grid     :     455.9989205627
  | Charge integration error                      :      -0.0010794373
  | Normalization factor for density and gradient :       1.0000023672

  Evaluating partitioned Hartree potential by multipole expansion.
  | Original multipole sum: apparent total charge =   0.716126E-12
  | Sum of charges compensated after spline to logarithmic grids =   0.404144E-07
  | Analytical far-field extrapolation by fixed multipoles:
  | Hartree multipole sum: apparent total charge =   0.716341E-12
  Summing up the Hartree potential.
  Time summed over all CPUs for potential: real work       40.022 s, elapsed       40.812 s
  | RMS charge density error from multipole expansion :   0.749604E-02
  | Average real-space part of the electrostatic potential :     -0.00931263 eV

  Integrating Hamiltonian matrix: batch-based integration.
  Time summed over all CPUs for integration: real work       62.277 s, elapsed       64.067 s

  Updating Kohn-Sham eigenvalues and eigenvectors using ELSI and the (modified) LAPACK eigensolver.
  Starting LAPACK eigensolver
  Finished Cholesky decomposition
  | Time :     0.011 s
  Finished transformation to standard eigenproblem
  | Time :     0.020 s
  Finished solving standard eigenproblem
  | Time :     0.070 s
  Finished back-transformation of eigenvectors
  | Time :     0.009 s
