------------------------------------------------------------
          Invoking FHI-aims ...

          When using FHI-aims, please cite the following reference:

          Volker Blum, Ralf Gehrke, Felix Hanke, Paula Havu,
          Ville Havu, Xinguo Ren, Karsten Reuter, and Matthias Scheffler,
          'Ab Initio Molecular Simulations with Numeric Atom-Centered Orbitals',
          Computer Physics Communications 180, 2175-2196 (2009)

          For any questions about FHI-aims, please visit the aimsclub website
          with its forums and wiki. Contributions to both the forums and the
          wiki are warmly encouraged - they are for you, and everyone is welcome there.

------------------------------------------------------------



  Date     :  20200420, Time     :  204645.447
  Time zero on CPU 1             :   0.116794000000000E+00  s.
  Internal wall clock time zero  :           356647605.447  s.

  FHI-aims created a unique identifier for this run for later identification
  aims_uuid : 874452C5-4F36-4FAE-AF2F-C4937F1EC316

  Build configuration of the current instance of FHI-aims
  -------------------------------------------------------
  FHI-aims version      : 200112
  Commit number         : 23daeca3f
  CMake host system     : Linux-3.10.0-693.21.1.el7.x86_64
  CMake version         : 3.13.3
  Fortran compiler      : /sw/installed/impi/2018.4.274-iccifort-2019.1.144-GCC-8.2.0-2.31.1/bin64/mpiifort (Intel) version 19.0.0.20181018
  Fortran compiler flags: -O3 -ip -fp-model precise
  C compiler            : /sw/installed/impi/2018.4.274-iccifort-2019.1.144-GCC-8.2.0-2.31.1/bin64/mpiicc (Intel) version 19.0.0.20181018
  C compiler flags      : -O3 -ip -fp-model precise
  Architecture          :
  Using MPI
  Using Scalapack
  Using C files
  Using LibXC
  Using SPGlib
  Using i-PI
  Using RLSY
  Linking against: /sw/installed/imkl/2019.1.144-iimpi-2019a/mkl/lib/intel64/libmkl_intel_lp64.so
                   /sw/installed/imkl/2019.1.144-iimpi-2019a/mkl/lib/intel64/libmkl_sequential.so
                   /sw/installed/imkl/2019.1.144-iimpi-2019a/mkl/lib/intel64/libmkl_core.so
                   /sw/installed/imkl/2019.1.144-iimpi-2019a/mkl/lib/intel64/libmkl_blacs_intelmpi_lp64.so
                   /sw/installed/imkl/2019.1.144-iimpi-2019a/mkl/lib/intel64/libmkl_scalapack_lp64.so

  Using       24 parallel tasks.
  Task        0 on host taurusi6423.taurus.hrsk.tu-dresden.de reporting.
  Task        1 on host taurusi6423.taurus.hrsk.tu-dresden.de reporting.
  Task        2 on host taurusi6423.taurus.hrsk.tu-dresden.de reporting.
  Task        3 on host taurusi6423.taurus.hrsk.tu-dresden.de reporting.
  Task        4 on host taurusi6423.taurus.hrsk.tu-dresden.de reporting.
  Task        5 on host taurusi6423.taurus.hrsk.tu-dresden.de reporting.
  Task        6 on host taurusi6423.taurus.hrsk.tu-dresden.de reporting.
  Task        7 on host taurusi6423.taurus.hrsk.tu-dresden.de reporting.
  Task        8 on host taurusi6423.taurus.hrsk.tu-dresden.de reporting.
  Task        9 on host taurusi6423.taurus.hrsk.tu-dresden.de reporting.
  Task       10 on host taurusi6423.taurus.hrsk.tu-dresden.de reporting.
  Task       11 on host taurusi6423.taurus.hrsk.tu-dresden.de reporting.
  Task       12 on host taurusi6423.taurus.hrsk.tu-dresden.de reporting.
  Task       13 on host taurusi6423.taurus.hrsk.tu-dresden.de reporting.
  Task       14 on host taurusi6423.taurus.hrsk.tu-dresden.de reporting.
  Task       15 on host taurusi6423.taurus.hrsk.tu-dresden.de reporting.
  Task       16 on host taurusi6423.taurus.hrsk.tu-dresden.de reporting.
  Task       17 on host taurusi6423.taurus.hrsk.tu-dresden.de reporting.
  Task       18 on host taurusi6423.taurus.hrsk.tu-dresden.de reporting.
  Task       19 on host taurusi6423.taurus.hrsk.tu-dresden.de reporting.
  Task       20 on host taurusi6423.taurus.hrsk.tu-dresden.de reporting.
  Task       21 on host taurusi6423.taurus.hrsk.tu-dresden.de reporting.
  Task       22 on host taurusi6423.taurus.hrsk.tu-dresden.de reporting.
  Task       23 on host taurusi6423.taurus.hrsk.tu-dresden.de reporting.

  Performing system and environment tests:
  | Environment variable OMP_NUM_THREADS correctly set to 1.
  | Maximum stacksize for task 0: unlimited
  | Maximum stacksize for task 1: unlimited
  | Maximum stacksize for task 2: unlimited
  | Maximum stacksize for task 3: unlimited
  | Maximum stacksize for task 4: unlimited
  | Maximum stacksize for task 5: unlimited
  | Maximum stacksize for task 6: unlimited
  | Maximum stacksize for task 7: unlimited
  | Maximum stacksize for task 8: unlimited
  | Maximum stacksize for task 9: unlimited
  | Maximum stacksize for task 10: unlimited
  | Maximum stacksize for task 11: unlimited
  | Maximum stacksize for task 12: unlimited
  | Maximum stacksize for task 13: unlimited
  | Maximum stacksize for task 14: unlimited
  | Maximum stacksize for task 15: unlimited
  | Maximum stacksize for task 16: unlimited
  | Maximum stacksize for task 17: unlimited
  | Maximum stacksize for task 18: unlimited
  | Maximum stacksize for task 19: unlimited
  | Maximum stacksize for task 20: unlimited
  | Maximum stacksize for task 21: unlimited
  | Maximum stacksize for task 22: unlimited
  | Maximum stacksize for task 23: unlimited
  | Current stacksize for task 0: unlimited
  | Current stacksize for task 1: unlimited
  | Current stacksize for task 2: unlimited
  | Current stacksize for task 3: unlimited
  | Current stacksize for task 4: unlimited
  | Current stacksize for task 5: unlimited
  | Current stacksize for task 6: unlimited
  | Current stacksize for task 7: unlimited
  | Current stacksize for task 8: unlimited
  | Current stacksize for task 9: unlimited
  | Current stacksize for task 10: unlimited
  | Current stacksize for task 11: unlimited
  | Current stacksize for task 12: unlimited
  | Current stacksize for task 13: unlimited
  | Current stacksize for task 14: unlimited
  | Current stacksize for task 15: unlimited
  | Current stacksize for task 16: unlimited
  | Current stacksize for task 17: unlimited
  | Current stacksize for task 18: unlimited
  | Current stacksize for task 19: unlimited
  | Current stacksize for task 20: unlimited
  | Current stacksize for task 21: unlimited
  | Current stacksize for task 22: unlimited
  | Current stacksize for task 23: unlimited
  | Checking for scalapack...
  | Testing pdtran()...
  | All pdtran() tests passed.

  Obtaining array dimensions for all initial allocations:
  
  -----------------------------------------------------------------------
  Parsing control.in (first pass over file, find array dimensions only).
  The contents of control.in will be repeated verbatim below
  unless switched off by setting 'verbatim_writeout .false.' .
  in the first line of control.in .
  -----------------------------------------------------------------------
  
  #===============================================================================
  # FHI-aims file: ./control.in
  # Created using the Atomic Simulation Environment (ASE)
  # Thu Apr  2 11:27:09 2020
  #===============================================================================
  xc                                 pbe
  # include_spin_orbit
  # vdw_correction_hirshfeld
  many_body_dispersion
  spin                               none
  k_grid 	 	 18 18 15
  relativistic                       atomic_zora scalar
  energy_tolerance 1e-2
  harmonic_length_scale  0.015
  ### SCF settings
  adjust_scf 	 always 	 3
  # frozen_core_scf 	 .true.
  # charge_mix_param  0.05
  # occupation_type 	 gaussian 	 0.01
  # sc_accuracy_eev   1E-3 	 	 # sum of eigenvalues convergence
  # sc_accuracy_etot  1E-6 	 	 # total energy convergence
  # sc_accuracy_rho   1E-3 	 	 # electron density convergence
  # elsi_restart 	 read_and_write 	 1000
  ### geometry optimisation section
  relax_geometry 	 bfgs 	 1E-2
  relax_unit_cell 	 full
  #===============================================================================
  
  ################################################################################
  #
  #  FHI-aims code project
  # Volker Blum, Fritz Haber Institute Berlin, 2009
  #
  #  Suggested "tight" defaults for Pd atom (to be pasted into control.in file)
  #
  ################################################################################
    species        Pd
  #     global species definitions
      nucleus             46
      mass                106.42
  #
      l_hartree           6
  #
      cut_pot             4.0  2.0  1.0
      basis_dep_cutoff    1e-4
  #
      radial_base         62 7.0
      radial_multiplier   2
      angular_grids specified
        division   0.3627   50
        division   0.7349  110
        division   1.0624  194
        division   1.2496  302
        division   1.6740  434
  #      division   2.0126  590
  #      division   2.0830  770
  #      division   2.7936 1202
  #       outer_grid  974
        outer_grid  434
  ################################################################################
  #
  #  Definition of "minimal" basis
  #
  ################################################################################
  #     valence basis states
      valence      5  s   1.
      valence      4  p   6.
      valence      4  d   9.
  #     ion occupancy
      ion_occ     5  s   0.
      ion_occ     4  p   6.
      ion_occ     4  d   8.
  ################################################################################
  #
  #  Suggested additional basis functions. For production calculations,
  #  uncomment them one after another (the most important basis functions are
  #  listed first).
  #
  #  Constructed for dimers: 2.0 A, 2.275 A, 2.75 A, 3.75 A
  #
  ################################################################################
  #  "First tier" - max. impr. -120.76  meV, min. impr. -5.71 meV
       ionic 5 p auto
       hydro 4 f 8
       hydro 5 g 10
       hydro 3 s 2.6
       hydro 3 d 2.5
  #  "Second tier" - max. impr. -5.00  meV, min. impr. -0.62 meV
  #     hydro 5 f 17.2
  #     hydro 6 h 14
  #     hydro 4 d 4
  #     hydro 5 f 7.6
  #     hydro 3 p 3.3
  #     hydro 4 s 9.4
  #  "Third tier" - max. impr. -0.54  meV, min. impr. -0.14 meV
  #     hydro 4 f 20
  #     hydro 5 g 12.8
  #     hydro 5 d 9.8
  #     hydro 6 h 15.2
  #     hydro 5 s 10
  #     hydro 6 p 9.8
  #  "Fourth tier" - max. impr. -0.15  meV, min. impr. -0.05 meV
  #     hydro 5 f 9.2
  #     hydro 2 s 5.6
  #     hydro 5 f 43.2
  #     hydro 5 d 13.2
  #     hydro 5 g 14
  #     hydro 4 p 4.7
  ################################################################################
  #
  #  FHI-aims code project
  # Volker Blum, Fritz Haber Institute Berlin, 2009
  #
  #  Suggested "tight" defaults for Se atom (to be pasted into control.in file)
  #
  ################################################################################
    species        Se
  #     global species definitions
      nucleus             34
      mass                78.96
  #
      l_hartree           6
  #
      cut_pot             4.0          2.0  1.0
      basis_dep_cutoff    1e-4
  #
      radial_base         55 7.0
      radial_multiplier   2
      angular_grids       specified
        division   0.0830  110
        division   0.1357  194
        division   0.7377  302
        division   0.8610  434
  #      division   0.9640  590
  #      division   1.0773  770
  #      division   2.5539  974
  #      outer_grid  974
        outer_grid  434
  ################################################################################
  #
  #  Definition of "minimal" basis
  #
  ################################################################################
  #     valence basis states
      valence      4  s   2.
      valence      4  p   4.
      valence      3  d  10.
  #     ion occupancy
      ion_occ      4  s   1.
      ion_occ      4  p   3.
      ion_occ      3  d  10.
  ################################################################################
  #
  #  Suggested additional basis functions. For production calculations,
  #  uncomment them one after another (the most important basis functions are
  #  listed first).
  #
  #  Constructed for dimers: 1.85 A, 2.15 A, 2.50 A, 3.00 A, 4.00 A
  #
  ################################################################################
  #  "First tier" - improvements: -336.21 meV to -36.85 meV
       hydro 3 d 4.3
       hydro 2 p 1.6
       hydro 4 f 7.2
       ionic 4 s auto
  #  "Second tier" - improvements: -14.39 meV to -1.49 meV
  #     hydro 5 g 10.4
  #     hydro 4 p 4.5
  #     hydro 4 d 6.2
  #     hydro 4 f 11.2
  #     hydro 1 s 0.65
  #     hydro 6 h 15.2
  #  "Third tier" - improvements: -0.46 meV and below
  #     hydro 5 g 14.4
  #     ionic 4 d auto
  #     hydro 4 f 22.4
  #     hydro 5 f 7.4
  #     hydro 5 p 8
  #     hydro 5 s 9.4
  #  "Fourth tier" - improvements: -0.12 meV and below
  #     hydro 5 d 11.6
  #     hydro 6 h 18
  #     hydro 4 p 4
  #     hydro 5 f 16
  #     hydro 4 s 3.9
  #
  #
  
  -----------------------------------------------------------------------
  Completed first pass over input file control.in .
  -----------------------------------------------------------------------
  
  
  -----------------------------------------------------------------------
  Parsing geometry.in (first pass over file, find array dimensions only).
  The contents of geometry.in will be repeated verbatim below
  unless switched off by setting 'verbatim_writeout .false.' .
  in the first line of geometry.in .
  -----------------------------------------------------------------------
  
  #
  # This is the geometry file that corresponds to the current relaxation step.
  # If you do not want this file to be written, set the "write_restart_geometry" flag to .false.
  #  aims_uuid : 8B0ED553-3655-4074-A0F0-E8297616863E
  #
  lattice_vector      5.85117568      0.00000000      0.00000000
  lattice_vector      0.00000000      5.95735012      0.00000000
  lattice_vector      0.00000000      0.00000000      7.44947751
  atom_frac       0.50224436      0.00169606      0.00158556 Pd
  atom_frac       0.00168697      0.00168997      0.50239022 Pd
  atom_frac       0.00174805      0.50225877      0.00159429 Pd
  atom_frac       0.50230635      0.50225437      0.50238229 Pd
  atom_frac       0.61409833      0.11975907      0.40424519 Se
  atom_frac       0.89100858      0.88479954      0.90471155 Se
  atom_frac       0.11351536      0.38425676      0.60040771 Se
  atom_frac       0.39043460      0.62031978      0.09973348 Se
  atom_frac       0.39045823      0.88480990      0.60040806 Se
  atom_frac       0.11352979      0.11974390      0.09972964 Se
  atom_frac       0.89100471      0.62032257      0.40424911 Se
  atom_frac       0.61410575      0.38423038      0.90470399 Se
  #
  # What follows is the current estimated Hessian matrix constructed by the BFGS algorithm.
  # This is NOT the true Hessian matrix of the system.
  # If you do not want this information here, switch it off using the "hessian_to_restart_geometry" keyword.
  #
  trust_radius             0.0122099134
  hessian_block                1       1           6.162821          -0.322230          -2.317075          -0.322230           7.21417
  hessian_block                1       2          -0.458902           1.359600           0.327080          -0.210037           1.19170
  hessian_block                1       3          -0.710799           1.839745           0.469085           0.074932          -0.35163
  hessian_block                1       4           0.500855           0.244391          -0.055771           0.113630          -0.53169
  hessian_block                1       5           0.263343          -1.073776          -0.392397          -0.767937           1.24065
  hessian_block                1       6          -1.186400          -1.319507           0.179766           1.127252          -1.78028
  hessian_block                1       7          -0.665160           0.954095           0.448131           0.196971          -0.03280
  hessian_block                1       8           0.087324          -1.141168           0.100835          -0.116723          -2.28000
  hessian_block                1       9          -0.134652           0.014870           0.172371           0.035285          -1.33567
  hessian_block                1      10          -3.014429           2.350116           1.557488          -0.748069           1.12642
  hessian_block                1      11           0.496493          -1.500908          -0.504363           0.640924          -0.52668
  hessian_block                1      12           0.225418          -1.405227           0.014849          -0.023995          -2.28714
  hessian_block                2       2           7.012471           1.393580           2.997713           1.393580           8.63790
  hessian_block                2       3           2.290738           2.486089           1.510578          -0.670531          -0.84393
  hessian_block                2       4           0.231520           0.650565           0.175368          -0.565249           0.68575
  hessian_block                2       5          -2.760474          -0.724456          -1.472334           1.487273           0.37135
  hessian_block                2       6          -1.879865          -1.591057          -0.860099          -1.759705          -2.70909
  hessian_block                2       7           0.692030           0.068324           0.140360          -0.667770          -1.81932
  hessian_block                2       8          -0.882410          -1.299922          -0.749182          -0.345415          -1.02244
  hessian_block                2       9          -2.024793           0.397829          -0.932839          -0.409474          -1.98831
  hessian_block                2      10           2.087685           1.681441           1.161997           1.873486           3.04926
  hessian_block                2      11          -1.586834          -1.777951          -0.909043          -1.251780          -4.28947
  hessian_block                2      12          -1.155254          -1.074402          -0.692795          -0.444017           0.38362
  hessian_block                3       3           8.689943          -0.927496           3.656577          -0.927496           6.38337
  hessian_block                3       4           0.372754          -0.274438          -0.018304          -0.343509           0.06853
  hessian_block                3       5          -1.602999           0.313860          -0.895984           1.260404           0.22278
  hessian_block                3       6          -2.742653           0.814040          -1.698307          -2.278810          -1.30763
  hessian_block                3       7           1.127948          -0.047625           0.825389          -0.116409          -0.05693
  hessian_block                3       8          -3.124587          -0.033018          -1.420245          -1.393092          -0.14712
  hessian_block                3       9          -0.262929           0.338923           0.138117          -1.541618           0.10409
  hessian_block                3      10           2.843166           0.101165           1.577146           3.691489          -2.70655
  hessian_block                3      11          -1.926626           0.341888          -1.063283          -1.777021           0.52830
  hessian_block                3      12          -3.388040          -0.031701          -1.567665          -0.899776          -0.24624
  hessian_block                4       4           5.943682           0.158873          -1.953511           0.158873           7.02960
  hessian_block                4       5          -0.505474           0.669522           0.107318           0.145087          -2.36149
  hessian_block                4       6          -0.090229           0.559773          -0.037216          -0.280843          -0.44099
  hessian_block                4       7          -1.968088          -0.950724           0.773470          -0.205141          -0.14784
  hessian_block                4       8          -0.280011          -0.144479          -0.278047           0.025990          -0.56363
  hessian_block                4       9          -0.264128           0.666677           0.153415           0.065593          -2.21040
  hessian_block                4      10          -0.372945          -0.516580           0.063314          -0.134497           0.86485
  hessian_block                4      11          -1.869777           0.029493           0.751032          -0.822605          -1.37868
  hessian_block                4      12          -0.132246           0.322571          -0.154742           0.427023           0.63302
  hessian_block                5       5           5.829850          -1.117744          -1.050086          -1.117744           7.34174
  hessian_block                5       6           1.256538          -1.819731          -0.159374           1.276976          -1.68385
  hessian_block                5       7          -0.872986           1.834514          -0.113215          -0.754776          -0.14448
  hessian_block                5       8           0.596034          -0.501638           0.519138           0.830122          -0.46148
  hessian_block                5       9          -1.358094          -0.388877           1.683346           0.331673          -2.86582
  hessian_block                5      10          -1.300887           2.187621           0.161506          -1.185030           1.68714
  hessian_block                5      11           1.235569          -1.963483           0.239911           1.601783          -0.66741
  hessian_block                5      12           0.785493          -0.355489          -0.302506          -0.168158          -1.03210
  hessian_block                6       6           7.542257           2.429322           5.275506           2.429322           8.16296
  hessian_block                6       7          -1.012797          -1.213257          -1.924806           0.737383           0.49551
  hessian_block                6       8           0.775148           1.362757           1.800172           0.760395           1.04549
  hessian_block                6       9           0.067621           0.098659          -0.057468           1.667523           2.36129
  hessian_block                6      10          -4.148039          -3.755172          -6.982521          -3.325779          -4.79329
  hessian_block                6      11           1.654785           1.870971           2.535170           0.434575           2.00433
  hessian_block                6      12           1.329545           1.121851           1.994908           0.653062           0.29257
  hessian_block                7       7           5.903994           0.350800           0.986723           0.350800           6.11172
  hessian_block                7       8          -0.544793          -0.002891           0.172425          -0.278799          -0.28094
  hessian_block                7       9           0.365750           0.589977          -0.237103          -1.340415          -0.20623
  hessian_block                7      10           1.416548          -0.906089          -0.531177           1.338113          -0.69428
  hessian_block                7      11          -2.559850           0.682774          -1.510367           0.047854          -2.15509
  hessian_block                7      12          -0.316686           0.095174           0.630710          -0.762880           0.57773
  hessian_block                8       8           5.152235           0.405500          -1.428800           0.405500           5.94109
  hessian_block                8       9           0.213054          -0.513103          -0.198712           0.869722           0.67626
  hessian_block                8      10          -0.982878          -1.017438           1.463613          -1.684555          -1.46929
  hessian_block                8      11           0.897643           0.275764          -0.974830           1.105962           1.67305
  hessian_block                8      12          -0.340849           1.366798           1.252711           1.063730          -1.46396
  hessian_block                9       9           5.024567          -0.527469          -0.777770          -0.527469           7.44785
  hessian_block                9      10          -0.012190          -1.406314          -0.218686          -0.152340          -1.94582
  hessian_block                9      11          -0.176333           1.876214          -0.124603          -0.728594           1.46799
  hessian_block                9      12           0.128040           0.379278           0.660473           0.203448           0.14180
  hessian_block               10      10           8.425162           3.346088           4.572766           3.346088          10.02219
  hessian_block               10      11          -1.818390          -1.733144          -1.466602          -1.042532          -3.02340
  hessian_block               10      12          -1.556891          -1.285767          -1.437612          -1.022303          -0.47020
  hessian_block               11      11           6.529211           1.148008           1.005079           1.148008           8.73811
  hessian_block               11      12           0.690020           0.643425          -0.317972           0.750373          -0.72399
  hessian_block               12      12           5.297363           0.223491          -0.080361           0.223491           5.84193
  hessian_block_lv             1       1          24.012161          -3.154176           5.358164          -3.154176          24.05994
  hessian_block_lv_atom        1       1           0.009058           0.063475          -0.269593          -0.116697          -0.00627
  hessian_block_lv_atom        1       2          -0.204869          -0.267291           0.435409           0.733726           0.63575
  hessian_block_lv_atom        1       3          -0.039942          -0.069035           0.733445           0.100778           0.26004
  hessian_block_lv_atom        1       4           0.052826           0.076311          -0.017636           0.869766           0.80720
  hessian_block_lv_atom        1       5           0.014316          -0.018580          -0.110244           0.494747           0.62041
  hessian_block_lv_atom        1       6          -0.345905          -0.827199          -1.120403          -1.139733          -1.27278
  hessian_block_lv_atom        1       7          -0.263411          -0.322807           0.609349          -0.871784          -1.05792
  hessian_block_lv_atom        1       8          -0.244636          -0.080099          -0.614506          -0.185325          -0.22388
  hessian_block_lv_atom        1       9           0.142824           0.240706          -0.183013          -1.047827          -1.13969
  hessian_block_lv_atom        1      10           0.440209           0.946372           1.348836           1.363914           1.28915
  hessian_block_lv_atom        1      11           0.262746           0.299771          -0.731825          -0.175984           0.14769
  hessian_block_lv_atom        1      12           0.176783          -0.041627          -0.079820          -0.025575          -0.05970
  symmetry_n_params 39 3 36
  symmetry_params a1 b2 c3 x0 x1 x2 x3 x4 x5 x6 x7 x8 x9 x10 x11 x12 x13 x14 x15 x16 x17 x18 x19 x20 x21 x22 x23 x24 x25 x26 x27 x28 x
  symmetry_lv a1 , 0 , 0
  symmetry_lv 0 , b2 , 0
  symmetry_lv 0 , 0 , c3
  symmetry_frac x0 , x1 , x2
  symmetry_frac x3 , x4 , x5
  symmetry_frac x6 , x7 , x8
  symmetry_frac x9 , x10 , x11
  symmetry_frac x12 , x13 , x14
  symmetry_frac x15 , x16 , x17
  symmetry_frac x18 , x19 , x20
  symmetry_frac x21 , x22 , x23
  symmetry_frac x24 , x25 , x26
  symmetry_frac x27 , x28 , x29
  symmetry_frac x30 , x31 , x32
  symmetry_frac x33 , x34 , x35
  
  -----------------------------------------------------------------------
  Completed first pass over input file geometry.in .
  -----------------------------------------------------------------------
  

  Basic array size parameters:
  | Number of species                 :        2
  | Number of atoms                   :       12
  | Number of lattice vectors         :        3
  | Max. basis fn. angular momentum   :        4
  | Max. atomic/ionic basis occupied n:        5
  | Max. number of basis fn. types    :        3
  | Max. radial fns per species/type  :       10
  | Max. logarithmic grid size        :     1444
  | Max. radial integration grid size :      125
  | Max. angular integration grid size:      434
  | Max. angular grid division number :        8
  | Radial grid for Hartree potential :     1444
  | Number of spin channels           :        1

------------------------------------------------------------
          Reading file control.in.
------------------------------------------------------------
  XC: Using PBE gradient-corrected functionals.
  Using libMBD for calculating MBD and TS energies
  Spin treatment: No spin polarisation.
  Found k-point grid:        18        18        15
  Scalar relativistic treatment of kinetic energy: on-site free-atom approximation to ZORA.
  Max energy increase before discarding BFGS move:   0.100000E-01 eV
  Assuming qualitatively harmonic for steps shorter than   0.150000E-01 A.
  S.C.F. convergence parameters will be adjusted in iteration number     3 of each new s.c.f. cycle.
  Geometry relaxation: Modified BFGS - TRM (trust radius method) for lattice optimization.
  Convergence accuracy for geometry relaxation: Maximum force <   0.100000E-01 eV/A.
 
  Reading configuration options for species Pd                  .
  | Found nuclear charge :  46.0000
  | Found atomic mass :    106.420000000000      amu
  | Found l_max for Hartree potential  :   6
  | Found cutoff potl. onset [A], width [A], scale factor :    4.00000    2.00000    1.00000
  | Threshold for basis-dependent cutoff potential is   0.100000E-03
  | Found data for basic radial integration grid :    62 points, outermost radius =    7.000 A
  | Found multiplier for basic radial grid :   2
  | Found angular grid specification: user-specified.
  | Specified grid contains     6 separate shells.
  | Check grid settings after all constraints further below.
  | Found free-atom valence shell :  5 s   1.000
  | Found free-atom valence shell :  4 p   6.000
  | Found free-atom valence shell :  4 d   9.000
  | Found free-ion valence shell :  5 s   0.000
  | Found free-ion valence shell :  4 p   6.000
  | Found free-ion valence shell :  4 d   8.000
  | Found ionic basis function :  5 p , default cutoff radius.
  | Found hydrogenic basis function :  4 f   8.000
  | Found hydrogenic basis function :  5 g  10.000
  | Found hydrogenic basis function :  3 s   2.600
  | Found hydrogenic basis function :  3 d   2.500
  Species Pd                  : Missing cutoff potential type.
  Defaulting to exp(1/x)/(1-x)^2 type cutoff potential.
  Species Pd: No 'logarithmic' tag. Using default grid for free atom:
  | Default logarithmic grid data [bohr] : 0.1000E-03 0.1000E+03 0.1012E+01
  | Will include ionic basis functions of  2.0-fold positive Pd                   ion.
  Species Pd: On-site basis accuracy parameter (for Gram-Schmidt orthonormalisation) not specified.
  Using default value basis_acc =  0.1000000E-03.
  Species Pd                  : Using default innermost maximum threshold i_radial=  2 for radial functions.
  Species Pd                  : Default cutoff onset for free atom density etc. : 0.40000000E+01 AA.
  Species Pd                  : Basic radial grid will be enhanced according to radial_multiplier =   2, to contain   125 grid points.
 
  Reading configuration options for species Se                  .
  | Found nuclear charge :  34.0000
  | Found atomic mass :    78.9600000000000      amu
  | Found l_max for Hartree potential  :   6
  | Found cutoff potl. onset [A], width [A], scale factor :    4.00000    2.00000    1.00000
  | Threshold for basis-dependent cutoff potential is   0.100000E-03
  | Found data for basic radial integration grid :    55 points, outermost radius =    7.000 A
  | Found multiplier for basic radial grid :   2
  | Found angular grid specification: user-specified.
  | Specified grid contains     5 separate shells.
  | Check grid settings after all constraints further below.
  | Found free-atom valence shell :  4 s   2.000
  | Found free-atom valence shell :  4 p   4.000
  | Found free-atom valence shell :  3 d  10.000
  | Found free-ion valence shell :  4 s   1.000
  | Found free-ion valence shell :  4 p   3.000
  | Found free-ion valence shell :  3 d  10.000
  | Found hydrogenic basis function :  3 d   4.300
  | Found hydrogenic basis function :  2 p   1.600
  | Found hydrogenic basis function :  4 f   7.200
  | Found ionic basis function :  4 s , default cutoff radius.
  Species Se                  : Missing cutoff potential type.
  Defaulting to exp(1/x)/(1-x)^2 type cutoff potential.
  Species Se: No 'logarithmic' tag. Using default grid for free atom:
  | Default logarithmic grid data [bohr] : 0.1000E-03 0.1000E+03 0.1012E+01
  | Will include ionic basis functions of  2.0-fold positive Se                   ion.
  Species Se: On-site basis accuracy parameter (for Gram-Schmidt orthonormalisation) not specified.
  Using default value basis_acc =  0.1000000E-03.
  Species Se                  : Using default innermost maximum threshold i_radial=  2 for radial functions.
  Species Se                  : Default cutoff onset for free atom density etc. : 0.40000000E+01 AA.
  Species Se                  : Basic radial grid will be enhanced according to radial_multiplier =   2, to contain   111 grid points.
 
  Finished reading input file 'control.in'. Consistency checks are next.
 
  MPI_IN_PLACE appears to work with this MPI implementation.
  | Keeping use_mpi_in_place .true. (see manual).
  Target number of points in a grid batch is not set. Defaulting to  100
  Method for grid partitioning is not set. Defaulting to parallel hash+maxmin partitioning.
  Batch size limit is not set. Defaulting to    200
  By default, will store active basis functions for each batch.
  If in need of memory, prune_basis_once .false. can be used to disable this option.
  communication_type for Hartree potential was not specified.
  Defaulting to calc_hartree .
  Defaulting to Pulay charge density mixer.
  Pulay mixer: Number of relevant iterations not set.
  Defaulting to    8 iterations.
  Pulay mixer: Number of initial linear mixing iterations not set.
  Defaulting to    0 iterations.
  Work space size for distributed Hartree potential not set.
  Defaulting to   0.200000E+03 MB.
  Mixing parameter for charge density mixing has not been set.
  Using default: charge_mix_param =     0.0500.
  The mixing parameter will be adjusted in iteration number     3 of each s.c.f. cycle (i.e., each geometry step).
  Algorithm-dependent basis array size parameters:
  | n_max_pulay                         :        8
  Maximum number of self-consistency iterations not provided.
  Presetting  1000 iterations.
  Presetting      1001 iterations before the initial mixing cycle
  is restarted anyway using the sc_init_iter criterion / keyword.
  Presetting a factor      1.000 between actual scf density residual
  and density convergence criterion sc_accuracy_rho below which sc_init_iter
  takes no effect.
 * No s.c.f. convergence criteria (sc_accuracy_*) were provided in control.in.
 * The run will proceed with a reasonable default guess, but please check whether.
 * the s.c.f. cycles seem to take too much or too little time.
  No maximum number of relaxation steps, defaulting to     1000
  Using explicit Hessian from geometry.in.
  Maximum energy tolerance by which TRM/BFGS trajectory may increase over multiple steps:   0.300000E-02
  No trust radius initializer. Defaulting to   0.200000E+00 A.
  Unit cell relaxation: Unit cell will be relaxed fully.
  Unit cell relaxation: Analytical stress will be used.
  Analytical stress will be computed.
  Analytical stress calculation: Only the upper triangle is calculated.
                                 Final output is symmetrized.
  Analytical stress calculation: scf convergence accuracy of stress not set.
                                 Analytical stress self-consistency will not be checked explicitly.
                                 Be sure to set other criteria like sc_accuracy_rho tight enough.
 * Notice: The s.c.f. convergence criterion sc_accuracy_rho was not provided.
 * We used to stop in this case, and ask the user to provide reasonable
 * scf convergence criteria. However, this led some users to employ criteria
 * that led to extremely long run times, e.g., for simple relaxation.
 * We now preset a default value for sc_accuracy_rho if it is not set.
 * You may still wish to check if this setting is too tight or too loose for your needs.
 * Based on n_atoms, FHI-aims chose sc_accuracy_rho =  0.141421E-05 .
  Force calculation: scf convergence accuracy of forces not set.
  Defaulting to 'sc_accuracy_forces not_checked'.
  Handling of forces: Unphysical translation and rotation will be removed from forces.
  No accuracy limit for integral partition fn. given. Defaulting to  0.1000E-14.
  No threshold value for u(r) in integrations given. Defaulting to  0.1000E-05.
  No occupation type (smearing scheme) given. Defaulting to Gaussian broadening, width =  0.1000E-01 eV.
  The width will be adjusted in iteration number     3 of each s.c.f. cycle (i.e., each geometry step).
  S.C.F. convergence parameters will be adjusted in iteration number     3 of the first full s.c.f. cycle only.
  No accuracy for occupation numbers given. Defaulting to  0.1000E-12.
  No threshold value for occupation numbers given. Defaulting to  0.0000E+00.
  No accuracy for fermi level given. Defaulting to  0.1000E-19.
  Maximum # of iterations to find E_F not set. Defaulting to  200.
  Preferred method for the eigenvalue solver ('KS_method') not specified in 'control.in'.
  Defaulting to serial version, LAPACK (via ELSI), since more k-points than CPUs available.
  Will not use alltoall communication since running on < 1024 CPUs.
  Threshold for basis singularities not set.
  Default threshold for basis singularities:  0.1000E-04
  partition_type (choice of integration weights) for integrals was not specified.
  | Using a version of the partition function of Stratmann and coworkers ('stratmann_sparse').
  | At each grid point, the set of atoms used to build the partition table is smoothly restricted to
  | only those atoms whose free-atom density would be non-zero at that grid point.
  Partitioning for Hartree potential was not defined. Using partition_type for integrals.
  | Adjusted default value of keyword multip_moments_threshold to:       0.10000000E-11
  | This value may affect high angular momentum components of the Hartree potential in periodic systems.
  Angular momentum expansion for Kerker preconditioner not set explicitly.
  | Using default value of   0
  No explicit requirement for turning off preconditioner.
  | By default, it will be turned off when the charge convergence reaches
  | sc_accuracy_rho  =   0.141421E-05
  No special mixing parameter while Kerker preconditioner is on.
  Using default: charge_mix_param =     0.0500.
  No q(lm)/r^(l+1) cutoff set for long-range Hartree potential.
  | Using default value of  0.100000E-09 .
  | Verify using the multipole_threshold keyword.
  Defaulting to new monopole extrapolation.
  Density update method: automatic selection selected.
  Using density matrix based charge density update.
  Using density matrix based charge density update.
  Using packed matrix style: index .
  Geometry relaxation: A file "geometry.in.next_step" is written out by default after each step.
  | This file contains the geometry of the current relaxation step as well as
  | the current Hessian matrix needed to restart the relaxation algorithm.
  | If you do not want part or all of this information, use the keywords
  | "write_restart_geometry" or "hessian_to_restart_geometry" to switch the output off.
  Defaulting to use time-reversal symmetry for k-point grid.
  Charge integration errors on the 3D integration grid will be compensated
  by explicit normalization and distribution of residual charges.
  Use the "compensate_multipole_errors" flag to change this behaviour.
------------------------------------------------------------


------------------------------------------------------------
          Reading geometry description geometry.in.
------------------------------------------------------------
  Input structure read successfully.
  The structure contains       12 atoms,  and a total of        456.000 electrons.

  Input geometry:
  | Unit cell:
  |        5.85117568        0.00000000        0.00000000
  |        0.00000000        5.95735012        0.00000000
  |        0.00000000        0.00000000        7.44947751
  | Atomic structure:
  |       Atom                x [A]            y [A]            z [A]
  |    1: Species Pd            2.93871998        0.01010402        0.01181159
  |    2: Species Pd            0.00987076        0.01006774        3.74254465
  |    3: Species Pd            0.01022815        2.99213134        0.01187663
  |    4: Species Pd            2.93908270        2.99210513        3.74248557
  |    5: Species Se            3.59319721        0.71344671        3.01141545
  |    6: Species Se            5.21344773        5.27106065        6.73962834
  |    7: Species Se            0.66419831        2.28915206        4.47272373
  |    8: Species Se            2.28450144        3.69546212        0.74296232
  |    9: Species Se            2.28463970        5.27112236        4.47272634
  |   10: Species Se            0.66428275        0.71335634        0.74293371
  |   11: Species Se            5.21342509        3.69547874        3.01144465
  |   12: Species Se            3.59324063        2.28899490        6.73957203

  Lattice parameters for 3D lattice (in Angstroms) :     5.851176    5.957350    7.449478
  Angle(s) between unit vectors (in degrees)       :    90.000000   90.000000   90.000000

  | The smallest distance between any two atoms is         2.40100361 AA.
  | The first atom of this pair is atom number                      6 .
  | The second atom of this pair is atom number                    10 .
  | Wigner-Seitz cell of the first atom image           0     0     0 .
  | (The Wigner-Seitz cell of the second atom is 0 0 0  by definition.)

  Symmetry information by spglib:
  | Precision set to  0.1E-04
  | Number of Operations  : 1
  | Space group           : 1
  | International         : P1
  | Schoenflies           : C1^1

  Quantities derived from the lattice vectors:
  | Reciprocal lattice vector 1:  1.073833  0.000000  0.000000
  | Reciprocal lattice vector 2:  0.000000  1.054695  0.000000
  | Reciprocal lattice vector 3:  0.000000  0.000000  0.843440
  | Unit cell volume                               :   0.259670E+03  A^3

  Range separation radius for Ewald summation (hartree_convergence_parameter):      4.00098846 bohr.

  Fractional coordinates:
                         L1                L2                L3
       atom_frac         0.50224436        0.00169606        0.00158556  Pd
       atom_frac         0.00168697        0.00168997        0.50239022  Pd
       atom_frac         0.00174805        0.50225877        0.00159429  Pd
       atom_frac         0.50230635        0.50225437        0.50238229  Pd
       atom_frac         0.61409833        0.11975907        0.40424519  Se
       atom_frac         0.89100858        0.88479954        0.90471155  Se
       atom_frac         0.11351536        0.38425676        0.60040771  Se
       atom_frac         0.39043460        0.62031978        0.09973348  Se
       atom_frac         0.39045823        0.88480990        0.60040806  Se
       atom_frac         0.11352979        0.11974390        0.09972964  Se
       atom_frac         0.89100471        0.62032257        0.40424911  Se
       atom_frac         0.61410575        0.38423038        0.90470399  Se

  Number of empty states per atom not set in control.in - providing a guess from actual geometry.
  | Total number of empty states used during s.c.f. cycle:       66
  If you use a very high smearing, use empty_states (per atom!) in control.in to increase this value.

  Structure-dependent array size parameters: 
  | Maximum number of distinct radial functions  :       27
  | Maximum number of basis functions            :      468
  | Number of Kohn-Sham states (occupied + empty):      294
------------------------------------------------------------

------------------------------------------------------------
          Preparing all fixed parts of the calculation.
------------------------------------------------------------
  Determining machine precision:
    2.225073858507201E-308
  Setting up grids for atomic and cluster calculations.

  Creating wave function, potential, and density for free atoms.

  Species: Pd

  List of occupied orbitals and eigenvalues:
    n    l              occ      energy [Ha]    energy [eV]
    1    0           2.0000      -913.269104    -24851.3168
    2    0           2.0000      -130.434372     -3549.2998
    3    0           2.0000       -23.521804      -640.0609
    4    0           2.0000        -3.256918       -88.6253
    5    0           1.0000        -0.157260        -4.2793
    2    1           6.0000      -116.910756     -3181.3035
    3    1           6.0000       -19.103344      -519.8284
    4    1           6.0000        -1.998052       -54.3697
    3    2          10.0000       -12.098182      -329.2083
    4    2           9.0000        -0.243389        -6.6230


  Species: Se

  List of occupied orbitals and eigenvalues:
    n    l              occ      energy [Ha]    energy [eV]
    1    0           2.0000      -466.337810    -12689.6975
    2    0           2.0000       -59.202598     -1610.9847
    3    0           2.0000        -7.847116      -213.5309
    4    0           2.0000        -0.634372       -17.2621
    2    1           6.0000       -52.061107     -1416.6548
    3    1           6.0000        -5.620941      -152.9536
    4    1           4.0000        -0.238469        -6.4891
    3    2          10.0000        -1.951949       -53.1152

  Creating fixed part of basis set: Ionic, confined, hydrogenic.
 
  Pd                   ion:

  List of free ionic orbitals and eigenvalues:
    n    l      energy [Ha]    energy [eV]
    1    0      -914.099884    -24873.9234
    2    0      -131.248265     -3571.4470
    3    0       -24.332473      -662.1203
    4    0        -4.059276      -110.4585
    2    1      -117.724296     -3203.4411
    3    1       -19.913908      -541.8850
    4    1        -2.795328       -76.0648
    3    2       -12.908733      -351.2645
    4    2        -1.004248       -27.3270


  List of ionic basis orbitals and eigenvalues:
    n    l      energy [Ha]    energy [eV]    outer radius [A]
    5    1        -0.516938       -14.0666       5.427025

 
  Pd                   hydrogenic:
 
  List of hydrogenic basis orbitals: 
    n    l      effective z      eigenvalue [eV]  inner max. [A]     outer max. [A]     outer radius [A]   
    4    3         8.000000       -54.4226           1.054686           1.054686           4.629581
    5    4        10.000000       -54.4226           1.330451           1.330451           5.043202
    3    0         2.600000        -9.8948           0.150992           2.606197           5.493778
    3    2         2.500000        -9.3396           1.873517           1.873517           5.493778
 
 
  Se                   ion:

  List of free ionic orbitals and eigenvalues:
    n    l      energy [Ha]    energy [eV]
    1    0      -467.261007    -12714.8189
    2    0       -60.104893     -1635.5374
    3    0        -8.743714      -237.9286
    4    0        -1.414053       -38.4783
    2    1       -52.964156     -1441.2280
    3    1        -6.516916      -177.3343
    4    1        -0.961869       -26.1738
    3    2        -2.844511       -77.4031


  List of ionic basis orbitals and eigenvalues:
    n    l      energy [Ha]    energy [eV]    outer radius [A]
    4    0        -1.414046       -38.4782       4.083166

 
  Se                   hydrogenic:
 
  List of hydrogenic basis orbitals: 
    n    l      effective z      eigenvalue [eV]  inner max. [A]     outer max. [A]     outer radius [A]   
    3    2         4.300000       -27.9518           1.103845           1.103845           5.278265
    2    1         1.600000        -8.6828           1.326010           1.326010           5.475439
    4    3         7.200000       -44.0822           1.173422           1.173422           4.965294
 

  Adding cutoff potential to free-atom effective potential.
  Creating atomic-like basis functions for current effective potential.

  Species Pd                  :

  List of atomic basis orbitals and eigenvalues:
    n    l      energy [Ha]    energy [eV]    outer radius [A]
    1    0      -913.269104    -24851.3168       0.223280
    2    0      -130.434372     -3549.2998       0.615909
    3    0       -23.521804      -640.0609       1.414312
    4    0        -3.256918       -88.6253       3.581357
    5    0        -0.157260        -4.2793       5.427025
    2    1      -116.910756     -3181.3035       0.631154
    3    1       -19.103344      -519.8284       1.540671
    4    1        -1.998052       -54.3697       4.408641
    3    2       -12.098182      -329.2083       1.806051
    4    2        -0.243389        -6.6230       5.361084


  Species Se                  :

  List of atomic basis orbitals and eigenvalues:
    n    l      energy [Ha]    energy [eV]    outer radius [A]
    1    0      -466.337810    -12689.6975       0.309561
    2    0       -59.202598     -1610.9847       0.885812
    3    0        -7.847116      -213.5309       2.355489
    4    0        -0.634372       -17.2621       5.214131
    2    1       -52.061107     -1416.6548       0.907737
    3    1        -5.620941      -152.9536       2.694529
    4    1        -0.238469        -6.4891       5.408909
    3    2        -1.951949       -53.1152       4.083166

  Assembling full basis from fixed parts.
  | Species Pd :   atomic orbital   1 s accepted.
  | Species Pd :   atomic orbital   2 s accepted.
  | Species Pd :   atomic orbital   3 s accepted.
  | Species Pd :   atomic orbital   4 s accepted.
  | Species Pd :   atomic orbital   5 s accepted.
  | Species Pd :    hydro orbital   3 s accepted.
  | Species Pd :   atomic orbital   2 p accepted.
  | Species Pd :   atomic orbital   3 p accepted.
  | Species Pd :   atomic orbital   4 p accepted.
  | Species Pd :    ionic orbital   5 p accepted.
  | Species Pd :   atomic orbital   3 d accepted.
  | Species Pd :   atomic orbital   4 d accepted.
  | Species Pd :    hydro orbital   3 d accepted.
  | Species Pd :    hydro orbital   4 f accepted.
  | Species Pd :    hydro orbital   5 g accepted.
  | Species Se :   atomic orbital   1 s accepted.
  | Species Se :   atomic orbital   2 s accepted.
  | Species Se :   atomic orbital   3 s accepted.
  | Species Se :    ionic orbital   4 s accepted.
  | Species Se :   atomic orbital   4 s accepted.
  | Species Se :   atomic orbital   2 p accepted.
  | Species Se :   atomic orbital   3 p accepted.
  | Species Se :   atomic orbital   4 p accepted.
  | Species Se :    hydro orbital   2 p accepted.
  | Species Se :   atomic orbital   3 d accepted.
  | Species Se :    hydro orbital   3 d accepted.
  | Species Se :    hydro orbital   4 f accepted.
 
  Basis size parameters after reduction:
  | Total number of radial functions:       27
  | Total number of basis functions :      468
 
  Per-task memory consumption for arrays in subroutine allocate_ext:
  |           9.993344MB.
  Testing on-site integration grid accuracy.
  |  Species  Function  <phi|h_atom|phi> (log., in eV)  <phi|h_atom|phi> (rad., in eV)
           1        1             -24851.3167505682             -24851.3148165635
           1        2              -3549.2998457785              -3549.2998098031
           1        3               -640.0608571327               -640.0608534886
           1        4                -88.6252603131                -88.6252593316
           1        5                 -4.2849374515                 -4.2849400622
           1        6                  4.9432123540                  4.9432188418
           1        7              -3181.3035399559              -3181.3035364574
           1        8               -519.8284281886               -519.8284264063
           1        9                -54.3697495804                -54.3697489261
           1       10                  0.8628369484                  0.8628370487
           1       11               -329.2082917394               -329.2082912864
           1       12                 -6.6230267036                 -6.6230265076
           1       13                  5.4924295291                  5.4924115607
           1       14                 25.0740861942                 25.0740861175
           1       15                 38.8271273823                 38.8271278029
           2       16             -12689.6974611609             -12689.6967666984
           2       17              -1610.9846578580              -1610.9846472470
           2       18               -213.5308789869               -213.5308777267
           2       19                -17.0464428502                -17.0464426496
           2       20                  6.7356859379                  6.7356842047
           2       21              -1416.6548010133              -1416.6548002108
           2       22               -152.9535734377               -152.9535727493
           2       23                 -6.4896265677                 -6.4896303794
           2       24                  5.2703037283                  5.2701679583
           2       25                -53.1152220964                -53.1152219035
           2       26                  7.6186674138                  7.6186665630
           2       27                 23.1072799052                 23.1072803137

  Preparing densities etc. for the partition functions (integrals / Hartree potential).

  Preparations completed.
  max(cpu_time)          :      0.556 s.
  Wall clock time (cpu1) :      0.617 s.
------------------------------------------------------------

------------------------------------------------------------
          Begin self-consistency loop: Initialization.

          Date     :  20200420, Time     :  204646.634
------------------------------------------------------------

  Initializing index lists of integration centers etc. from given atomic structure:
  Mapping all atomic coordinates to central unit cell.

  Initializing the k-points
  Using symmetry for reducing the k-points
  | k-points reduced from:     4860 to     2432
  | Number of k-points                             :      2432
  The eigenvectors in the calculations are COMPLEX.
  | K-points in task   0:       101
  | K-points in task   1:       102
  | K-points in task   2:       102
  | K-points in task   3:       102
  | K-points in task   4:       102
  | K-points in task   5:       102
  | K-points in task   6:       102
  | K-points in task   7:       102
  | K-points in task   8:       102
  | K-points in task   9:       101
  | K-points in task  10:       101
  | K-points in task  11:       101
  | K-points in task  12:       101
  | K-points in task  13:       101
  | K-points in task  14:       101
  | K-points in task  15:       101
  | K-points in task  16:       101
  | K-points in task  17:       101
  | K-points in task  18:       101
  | K-points in task  19:       101
  | K-points in task  20:       101
  | K-points in task  21:       101
  | K-points in task  22:       101
  | K-points in task  23:       101
  | Number of basis functions in the Hamiltonian integrals :      5582
  | Number of basis functions in a single unit cell        :       468
  | Number of centers in hartree potential         :      1318
  | Number of centers in hartree multipole         :       766
  | Number of centers in electron density summation:       595
  | Number of centers in basis integrals           :       640
  | Number of centers in integrals                 :       236
  | Number of centers in hamiltonian               :       596
  | Consuming       3268 KiB for k_phase.
  | Number of super-cells (origin) [n_cells]                     :         567
  | Number of super-cells (after PM_index) [n_cells]             :          86
  | Number of super-cells in hamiltonian [n_cells_in_hamiltonian]:          86
  | Size of matrix packed + index [n_hamiltonian_matrix_size] :     1292352

  Initializing relaxation algorithms.
  | Estimated reciprocal-space cutoff momentum G_max:         2.42751046 bohr^-1 .
  | Reciprocal lattice points for long-range Hartree potential:     418
  Partitioning the integration grid into batches with parallel hashing+maxmin method.
  | Number of batches:     4182
  | Maximal batch size:     110
  | Minimal batch size:      50
  | Average batch size:      91.855
  | Standard deviation of batch sizes:      11.400

  Integration load balanced across    24 MPI tasks.
  Work distribution over tasks is as follows:
  Task     0 has      16023 integration points.
  Task     1 has      15994 integration points.
  Task     2 has      16041 integration points.
  Task     3 has      16025 integration points.
  Task     4 has      16020 integration points.
  Task     5 has      16037 integration points.
  Task     6 has      15993 integration points.
  Task     7 has      16023 integration points.
  Task     8 has      15988 integration points.
  Task     9 has      15988 integration points.
  Task    10 has      15976 integration points.
  Task    11 has      15970 integration points.
  Task    12 has      16043 integration points.
  Task    13 has      15992 integration points.
  Task    14 has      15969 integration points.
  Task    15 has      16018 integration points.
  Task    16 has      15969 integration points.
  Task    17 has      15974 integration points.
  Task    18 has      16003 integration points.
  Task    19 has      16025 integration points.
  Task    20 has      16005 integration points.
  Task    21 has      16034 integration points.
  Task    22 has      16040 integration points.
  Task    23 has      15986 integration points.
  Initializing partition tables, free-atom densities, potentials, etc. across the integration grid (initialize_grid_storage).
  | initialize_grid_storage: Actual outermost partition radius vs. multipole_radius_free
  | (-- VB: in principle, multipole_radius_free should be larger, hence this output)
  | Species        1: Confinement radius =              6.000000000000000 AA, multipole_radius_free =              6.058219618167466 AA.
  | Species        1: outer_partition_radius set to              6.058219618167466 AA .
  | Species        2: Confinement radius =              6.000000000000000 AA, multipole_radius_free =              6.037996416842453 AA.
  | Species        2: outer_partition_radius set to              6.037996416842453 AA .
  | The sparse table of interatomic distances needs       2897.83 kbyte instead of      3276.80 kbyte of memory.
  | Net number of integration points:   384136
  | of which are non-zero points    :   322166
  | Numerical average free-atom electrostatic potential    :    -17.05408725 eV
  Renormalizing the initial density to the exact electron count on the 3D integration grid.
  | Initial density: Formal number of electrons (from input files) :     456.0000000000
  | Integrated number of electrons on 3D grid     :     456.0000475970
  | Charge integration error                      :       0.0000475970
  | Normalization factor for density and gradient :       0.9999998956
  Renormalizing the free-atom superposition density to the exact electron count on the 3D integration grid.
  | Formal number of electrons (from input files) :     456.0000000000
  | Integrated number of electrons on 3D grid     :     456.0000475970
  | Charge integration error                      :       0.0000475970
  | Normalization factor for density and gradient :       0.9999998956
  Obtaining max. number of non-zero basis functions in each batch (get_n_compute_maxes).
  | Maximal number of non-zero basis functions:     1029 in task     0
  | Maximal number of non-zero basis functions:     1014 in task     1
  | Maximal number of non-zero basis functions:     1020 in task     2
  | Maximal number of non-zero basis functions:     1008 in task     3
  | Maximal number of non-zero basis functions:     1059 in task     4
  | Maximal number of non-zero basis functions:     1015 in task     5
  | Maximal number of non-zero basis functions:     1011 in task     6
  | Maximal number of non-zero basis functions:     1039 in task     7
  | Maximal number of non-zero basis functions:     1016 in task     8
  | Maximal number of non-zero basis functions:     1010 in task     9
  | Maximal number of non-zero basis functions:     1022 in task    10
  | Maximal number of non-zero basis functions:     1030 in task    11
  | Maximal number of non-zero basis functions:     1009 in task    12
  | Maximal number of non-zero basis functions:     1016 in task    13
  | Maximal number of non-zero basis functions:     1025 in task    14
  | Maximal number of non-zero basis functions:     1023 in task    15
  | Maximal number of non-zero basis functions:     1008 in task    16
  | Maximal number of non-zero basis functions:     1021 in task    17
  | Maximal number of non-zero basis functions:     1004 in task    18
  | Maximal number of non-zero basis functions:     1029 in task    19
  | Maximal number of non-zero basis functions:     1031 in task    20
  | Maximal number of non-zero basis functions:     1042 in task    21
  | Maximal number of non-zero basis functions:     1026 in task    22
  | Maximal number of non-zero basis functions:     1028 in task    23
  Allocating      212.048 MB for KS_eigenvector_complex
  Integrating Hamiltonian matrix: batch-based integration.
  Time summed over all CPUs for integration: real work       63.860 s, elapsed       64.819 s
  Integrating overlap matrix.
  Time summed over all CPUs for integration: real work       46.117 s, elapsed       46.915 s
  Decreasing sparse matrix size:
  | Tolerance:  0.1000E-12
  Hamiltonian matrix
  | Array has  1117677 nonzero elements out of  1292352 elements
  | Sparsity factor is 0.135
  Overlap matrix
  | Array has  1030930 nonzero elements out of  1292352 elements
  | Sparsity factor is 0.202
  New size of hamiltonian matrix:     1117753

  Updating Kohn-Sham eigenvalues and eigenvectors using ELSI and the (modified) LAPACK eigensolver.
  Singularity check in k-point 24, task 0 (analysis for other k-points/tasks may follow below):
  Overlap matrix is not singular
  | Lowest and highest eigenvalues :  0.6030E-03,  0.7286E+01
  Finished singularity check of overlap matrix
  | Time :     0.075 s
  Starting LAPACK eigensolver
  Finished Cholesky decomposition
  | Time :     0.019 s
  Finished transformation to standard eigenproblem
  | Time :     0.021 s
  Finished solving standard eigenproblem
  | Time :     0.071 s
  Finished back-transformation of eigenvectors
  | Time :     0.008 s

  Obtaining occupation numbers and chemical potential using ELSI.
  | Chemical potential (Fermi level):    -4.64097555 eV
  Writing Kohn-Sham eigenvalues.
  K-point:       1 at    0.000000    0.000000    0.000000 (in units of recip. lattice)

  State    Occupation    Eigenvalue [Ha]    Eigenvalue [eV]
      1       2.00000        -913.279531       -24851.60048
      2       2.00000        -913.279515       -24851.60005
      3       2.00000        -913.279512       -24851.59996
      4       2.00000        -913.279394       -24851.59675
      5       2.00000        -466.350391       -12690.03981
      6       2.00000        -466.350328       -12690.03809
      7       2.00000        -466.350275       -12690.03663
      8       2.00000        -466.350271       -12690.03653
      9       2.00000        -466.350265       -12690.03637
     10       2.00000        -466.350247       -12690.03587
     11       2.00000        -466.350218       -12690.03509
     12       2.00000        -466.350187       -12690.03424
     13       2.00000        -130.445116        -3549.59220
     14       2.00000        -130.445100        -3549.59177
     15       2.00000        -130.445096        -3549.59167
     16       2.00000        -130.444977        -3549.58843
     17       2.00000        -116.921524        -3181.59654
     18       2.00000        -116.921515        -3181.59630
     19       2.00000        -116.921508        -3181.59611
     20       2.00000        -116.921504        -3181.59601
     21       2.00000        -116.921499        -3181.59587
     22       2.00000        -116.921496        -3181.59578
     23       2.00000        -116.921461        -3181.59482
     24       2.00000        -116.921445        -3181.59440
     25       2.00000        -116.921442        -3181.59430
     26       2.00000        -116.921385        -3181.59278
     27       2.00000        -116.921377        -3181.59254
     28       2.00000        -116.921323        -3181.59108
     29       2.00000         -59.215607        -1611.33864
     30       2.00000         -59.215542        -1611.33688
     31       2.00000         -59.215488        -1611.33540
     32       2.00000         -59.215484        -1611.33531
     33       2.00000         -59.215478        -1611.33513
     34       2.00000         -59.215459        -1611.33463
     35       2.00000         -59.215430        -1611.33384
     36       2.00000         -59.215399        -1611.33298
     37       2.00000         -52.074122        -1417.00896
     38       2.00000         -52.074099        -1417.00833
     39       2.00000         -52.074059        -1417.00723
     40       2.00000         -52.074049        -1417.00696
     41       2.00000         -52.074033        -1417.00653
     42       2.00000         -52.074005        -1417.00576
     43       2.00000         -52.073999        -1417.00562
     44       2.00000         -52.073994        -1417.00549
     45       2.00000         -52.073984        -1417.00521
     46       2.00000         -52.073978        -1417.00504
     47       2.00000         -52.073977        -1417.00501
     48       2.00000         -52.073976        -1417.00498
     49       2.00000         -52.073969        -1417.00479
     50       2.00000         -52.073950        -1417.00429
     51       2.00000         -52.073946        -1417.00417
     52       2.00000         -52.073931        -1417.00376
     53       2.00000         -52.073927        -1417.00365
     54       2.00000         -52.073922        -1417.00350
     55       2.00000         -52.073921        -1417.00348
     56       2.00000         -52.073915        -1417.00332
     57       2.00000         -52.073903        -1417.00299
     58       2.00000         -52.073890        -1417.00264
     59       2.00000         -52.073874        -1417.00221
     60       2.00000         -52.073843        -1417.00136
     61       2.00000         -23.533312         -640.37399
     62       2.00000         -23.533295         -640.37353
     63       2.00000         -23.533291         -640.37343
     64       2.00000         -23.533164         -640.36998
     65       2.00000         -19.115108         -520.14855
     66       2.00000         -19.115091         -520.14809
     67       2.00000         -19.115084         -520.14790
     68       2.00000         -19.115020         -520.14615
     69       2.00000         -19.115001         -520.14565
     70       2.00000         -19.115001         -520.14563
     71       2.00000         -19.114957         -520.14444
     72       2.00000         -19.114870         -520.14209
     73       2.00000         -19.114482         -520.13152
     74       2.00000         -19.114467         -520.13110
     75       2.00000         -19.114463         -520.13100
     76       2.00000         -19.114340         -520.12766
     77       2.00000         -12.109915         -329.52755
     78       2.00000         -12.109897         -329.52707
     79       2.00000         -12.109893         -329.52696
     80       2.00000         -12.109879         -329.52658
     81       2.00000         -12.109862         -329.52610
     82       2.00000         -12.109857         -329.52599
     83       2.00000         -12.109764         -329.52345
     84       2.00000         -12.109729         -329.52249
     85       2.00000         -12.109533         -329.51715
     86       2.00000         -12.109517         -329.51672
     87       2.00000         -12.109511         -329.51656
     88       2.00000         -12.109476         -329.51561
     89       2.00000         -12.109459         -329.51516
     90       2.00000         -12.109458         -329.51511
     91       2.00000         -12.109393         -329.51334
     92       2.00000         -12.109387         -329.51320
     93       2.00000         -12.109377         -329.51291
     94       2.00000         -12.109373         -329.51282
     95       2.00000         -12.109332         -329.51169
     96       2.00000         -12.109250         -329.50945
     97       2.00000          -7.861928         -213.93394
     98       2.00000          -7.861851         -213.93185
     99       2.00000          -7.861791         -213.93023
    100       2.00000          -7.861790         -213.93018
    101       2.00000          -7.861779         -213.92990
    102       2.00000          -7.861759         -213.92934
    103       2.00000          -7.861726         -213.92845
    104       2.00000          -7.861691         -213.92751
    105       2.00000          -5.636334         -153.37245
    106       2.00000          -5.636270         -153.37070
    107       2.00000          -5.636206         -153.36898
    108       2.00000          -5.636193         -153.36862
    109       2.00000          -5.636189         -153.36852
    110       2.00000          -5.636169         -153.36795
    111       2.00000          -5.636128         -153.36685
    112       2.00000          -5.636096         -153.36597
    113       2.00000          -5.636091         -153.36583
    114       2.00000          -5.636001         -153.36339
    115       2.00000          -5.635937         -153.36164
    116       2.00000          -5.635927         -153.36137
    117       2.00000          -5.635914         -153.36102
    118       2.00000          -5.635899         -153.36062
    119       2.00000          -5.635838         -153.35896
    120       2.00000          -5.635812         -153.35825
    121       2.00000          -5.635412         -153.34735
    122       2.00000          -5.635336         -153.34531
    123       2.00000          -5.635286         -153.34393
    124       2.00000          -5.635281         -153.34379
    125       2.00000          -5.635272         -153.34354
    126       2.00000          -5.635254         -153.34306
    127       2.00000          -5.635227         -153.34233
    128       2.00000          -5.635192         -153.34136
    129       2.00000          -3.273982          -89.08959
    130       2.00000          -3.273958          -89.08894
    131       2.00000          -3.273952          -89.08878
    132       2.00000          -3.273768          -89.08375
    133       2.00000          -2.020301          -54.97518
    134       2.00000          -2.020278          -54.97457
    135       2.00000          -2.020226          -54.97314
    136       2.00000          -2.020010          -54.96728
    137       2.00000          -2.019286          -54.94756
    138       2.00000          -2.019278          -54.94736
    139       2.00000          -2.019228          -54.94598
    140       2.00000          -2.019012          -54.94011
    141       2.00000          -2.013049          -54.77785
    142       2.00000          -2.013039          -54.77758
    143       2.00000          -2.013032          -54.77740
    144       2.00000          -2.012869          -54.77295
    145       2.00000          -1.969350          -53.58875
    146       2.00000          -1.969237          -53.58566
    147       2.00000          -1.969162          -53.58364
    148       2.00000          -1.969136          -53.58291
    149       2.00000          -1.968275          -53.55950
    150       2.00000          -1.968201          -53.55747
    151       2.00000          -1.968126          -53.55542
    152       2.00000          -1.968106          -53.55489
    153       2.00000          -1.967815          -53.54697
    154       2.00000          -1.967782          -53.54607
    155       2.00000          -1.967707          -53.54403
    156       2.00000          -1.967694          -53.54368
    157       2.00000          -1.967692          -53.54363
    158       2.00000          -1.967641          -53.54224
    159       2.00000          -1.967564          -53.54015
    160       2.00000          -1.967555          -53.53988
    161       2.00000          -1.967397          -53.53561
    162       2.00000          -1.967358          -53.53454
    163       2.00000          -1.967348          -53.53425
    164       2.00000          -1.967301          -53.53299
    165       2.00000          -1.967290          -53.53268
    166       2.00000          -1.967280          -53.53241
    167       2.00000          -1.967264          -53.53197
    168       2.00000          -1.967240          -53.53132
    169       2.00000          -1.967238          -53.53128
    170       2.00000          -1.967222          -53.53085
    171       2.00000          -1.967218          -53.53072
    172       2.00000          -1.967206          -53.53041
    173       2.00000          -1.967168          -53.52935
    174       2.00000          -1.967161          -53.52916
    175       2.00000          -1.967148          -53.52882
    176       2.00000          -1.967121          -53.52810
    177       2.00000          -1.966725          -53.51731
    178       2.00000          -1.966679          -53.51606
    179       2.00000          -1.966618          -53.51439
    180       2.00000          -1.966605          -53.51406
    181       2.00000          -1.966370          -53.50765
    182       2.00000          -1.966332          -53.50662
    183       2.00000          -1.966267          -53.50485
    184       2.00000          -1.966261          -53.50469
    185       2.00000          -0.759556          -20.66856
    186       2.00000          -0.740816          -20.15863
    187       2.00000          -0.720586          -19.60813
    188       2.00000          -0.718831          -19.56038
    189       2.00000          -0.652595          -17.75800
    190       2.00000          -0.640670          -17.43352
    191       2.00000          -0.639272          -17.39547
    192       2.00000          -0.627536          -17.07612
    193       2.00000          -0.418472          -11.38720
    194       2.00000          -0.410691          -11.17548
    195       2.00000          -0.389379          -10.59554
    196       2.00000          -0.376447          -10.24366
    197       2.00000          -0.370669          -10.08643
    198       2.00000          -0.369208          -10.04666
    199       2.00000          -0.366722           -9.97901
    200       2.00000          -0.366179           -9.96424
    201       2.00000          -0.364755           -9.92550
    202       2.00000          -0.363033           -9.87863
    203       2.00000          -0.361247           -9.83004
    204       2.00000          -0.351794           -9.57280
    205       2.00000          -0.341749           -9.29946
    206       2.00000          -0.330790           -9.00125
    207       2.00000          -0.324421           -8.82795
    208       2.00000          -0.316397           -8.60961
    209       2.00000          -0.316248           -8.60554
    210       2.00000          -0.306254           -8.33360
    211       2.00000          -0.288643           -7.85437
    212       2.00000          -0.286389           -7.79303
    213       2.00000          -0.285229           -7.76147
    214       2.00000          -0.280072           -7.62114
    215       2.00000          -0.279109           -7.59494
    216       2.00000          -0.277250           -7.54435
    217       2.00000          -0.276240           -7.51689
    218       2.00000          -0.275705           -7.50232
    219       2.00000          -0.273691           -7.44751
    220       2.00000          -0.270346           -7.35650
    221       2.00000          -0.265358           -7.22076
    222       2.00000          -0.263613           -7.17327
    223       2.00000          -0.263324           -7.16542
    224       2.00000          -0.257752           -7.01378
    225       2.00000          -0.224358           -6.10509
    226       2.00000          -0.215305           -5.85875
    227       2.00000          -0.213044           -5.79723
    228       0.00000          -0.165011           -4.49017
    229       0.00000          -0.152235           -4.14253
    230       0.00000          -0.135274           -3.68101
    231       0.00000          -0.129943           -3.53592
    232       0.00000          -0.128595           -3.49925
    233       0.00000          -0.125732           -3.42134
    234       0.00000          -0.115527           -3.14365
    235       0.00000          -0.114828           -3.12463
    236       0.00000          -0.082007           -2.23153
    237       0.00000          -0.037432           -1.01857
    238       0.00000          -0.030365           -0.82628
    239       0.00000          -0.003125           -0.08505
    240       0.00000           0.021286            0.57921
    241       0.00000           0.025471            0.69309
    242       0.00000           0.026811            0.72956
    243       0.00000           0.057084            1.55333
    244       0.00000           0.089405            2.43282
    245       0.00000           0.102668            2.79375
    246       0.00000           0.111302            3.02868
    247       0.00000           0.118857            3.23425
    248       0.00000           0.122543            3.33457
    249       0.00000           0.125246            3.40810
    250       0.00000           0.125692            3.42024
    251       0.00000           0.137235            3.73435
    252       0.00000           0.151519            4.12304
    253       0.00000           0.160511            4.36774
    254       0.00000           0.171306            4.66148
    255       0.00000           0.176805            4.81112
    256       0.00000           0.189423            5.15447
    257       0.00000           0.191765            5.21819
    258       0.00000           0.198255            5.39478
    259       0.00000           0.219919            5.98430
    260       0.00000           0.231505            6.29958
    261       0.00000           0.247710            6.74053
    262       0.00000           0.257738            7.01341
    263       0.00000           0.267080            7.26763
    264       0.00000           0.280554            7.63425
    265       0.00000           0.280975            7.64571
[...]
  |                x                y                z                |
  |                                                                   |
  |  x        -0.00017362       0.00000195       0.00002668           |
  |  y         0.00000195       0.00006984       0.00000077           |
  |  z         0.00002668       0.00000077      -0.00005155           |
  |                                                                   |
  |  Pressure:       0.00005178   [eV/A**3]                           |
  |                                                                   |
  +-------------------------------------------------------------------+

 * Warning: Stress tensor is anisotropic. Be aware that pressure is an isotropic quantity.


  Leaving Libmbd.

  Timings for VdW correction (Tkatchenko-Scheffler 2009 or later):
  | CPU time:       22.387 s, Wall clock time:       22.387 s.
  Removing unitary transformations (pure translations, rotations) from forces on atoms.
  Atomic forces before filtering:
  | Net force on center of mass :  -0.817921E-05  0.776110E-04  0.233070E-05 eV/A
  Atomic forces after filtering:
  | Net force on center of mass :   0.348449E-18 -0.139380E-17 -0.209070E-17 eV/A

  Energy and forces in a compact form:
  | Total energy uncorrected      :         -0.108791111541146E+07 eV
  | Total energy corrected        :         -0.108791111643861E+07 eV  <-- do not rely on this value for anything but (periodic) metals
  | Electronic free energy        :         -0.108791111746576E+07 eV
  Total atomic forces (unitary forces cleaned) [eV/Ang]:
  |    1          0.672343671298854E-03         -0.396494188981438E-02          0.192528899495744E-02
  |    2          0.188043518490291E-02          0.517024919701357E-03         -0.715697317222833E-03
  |    3         -0.210377221484136E-02         -0.285399931824402E-02          0.223314784801626E-02
  |    4          0.409539054083925E-03         -0.191945962216669E-03         -0.137483450016073E-02
  |    5         -0.294508473296105E-03         -0.847423312070562E-03         -0.178068600118146E-02
  |    6          0.251175600194610E-02          0.320921561504670E-02         -0.310385629405201E-02
  |    7         -0.221479961837570E-02          0.115341754457918E-02          0.185280292828233E-02
  |    8         -0.314238733363680E-02         -0.396645957876571E-03          0.245160691581142E-02
  |    9         -0.868500760026604E-03          0.866387516448066E-03          0.183782081416822E-02
  |   10          0.284333683924670E-03          0.166440122773128E-02          0.130296247848324E-02
  |   11          0.902338576849189E-03         -0.165434507497540E-02         -0.128101258468636E-02
  |   12          0.196322222717092E-02          0.249885469169102E-02         -0.334754328241552E-02

  ------------------------------------ 
  Start decomposition of the XC Energy 
  ------------------------------------ 
  X and C from original XC functional choice 
  Hartree-Fock Energy :          0.000000000 Ha              0.000000000 eV
  X Energy            :      -1261.088449296 Ha         -34315.962682312 eV
  C Energy            :        -23.236651945 Ha           -632.301470569 eV
  Total XC Energy     :      -1284.325101241 Ha         -34948.264152881 eV
  ------------------------------------ 
  LDA X and C from self-consistent density 
  X Energy LDA        :      -1197.517984527 Ha         -32586.122322623 eV
  C Energy LDA        :        -42.068187767 Ha          -1144.733632541 eV
  ------------------------------------ 
  End decomposition of the XC Energy 
  ------------------------------------ 

------------------------------------------------------------
  Relaxation / MD: End force evaluation.       :  max(cpu_time)    wall_clock(cpu1)
  | Time for this force evaluation             :      556.496 s         556.918 s

------------------------------------------------------------
  Geometry optimization: Attempting to predict improved coordinates.

  +-------------------------------------------------------------------+
  | Generalized derivatives on lattice vectors [eV/A]                 |
  +-------------------------------------------------------------------+
  |lattice_vector      -0.00777375       0.00008717       0.00119441  |
  |lattice_vector       0.00008556       0.00306939       0.00003387  |
  |lattice_vector       0.00092786       0.00002681      -0.00179296  |
  +-------------------------------------------------------------------+
  | Forces on lattice vectors cleaned from atomic contributions [eV/A]|
  +-------------------------------------------------------------------+
  |lattice_vector       0.00777375      -0.00008717      -0.00119441  |
  |lattice_vector      -0.00008556      -0.00306939      -0.00003387  |
  |lattice_vector      -0.00092786      -0.00002681       0.00179296  |
  +-------------------------------------------------------------------+
  Symmetrized total atomic cartesian forces [eV/Ang]:
  |   1     0.6723436713E-03    -0.3964941890E-02     0.1925288995E-02
  |   2     0.1880435185E-02     0.5170249197E-03    -0.7156973172E-03
  |   3    -0.2103772215E-02    -0.2853999318E-02     0.2233147848E-02
  |   4     0.4095390541E-03    -0.1919459622E-03    -0.1374834500E-02
  |   5    -0.2945084733E-03    -0.8474233121E-03    -0.1780686001E-02
  |   6     0.2511756002E-02     0.3209215615E-02    -0.3103856294E-02
  |   7    -0.2214799618E-02     0.1153417545E-02     0.1852802928E-02
  |   8    -0.3142387334E-02    -0.3966459579E-03     0.2451606916E-02
  |   9    -0.8685007600E-03     0.8663875164E-03     0.1837820814E-02
  |  10     0.2843336839E-03     0.1664401228E-02     0.1302962478E-02
  |  11     0.9023385768E-03    -0.1654345075E-02    -0.1281012585E-02
  |  12     0.1963222227E-02     0.2498854692E-02    -0.3347543282E-02
  +-------------------------------------------------------------------+
  | Symmetrized forces on lattice vectors cleaned from symmetrized
  | atomic contributions [eV/A]|
  +-------------------------------------------------------------------+
  |lattice_vector       0.00777375       0.00000000       0.00000000  |
  |lattice_vector       0.00000000      -0.00306939       0.00000000  |
  |lattice_vector       0.00000000       0.00000000       0.00179296  |
  +-------------------------------------------------------------------+
  Removing unitary transformations (pure translations, rotations) from forces on atoms.
  Atomic forces before filtering:
  | Net force on center of mass :  -0.348449E-18 -0.243915E-17 -0.139380E-17 eV/A
  Atomic forces after filtering:
  | Net force on center of mass :   0.348449E-18  0.139380E-17 -0.139380E-17 eV/A
  Net remaining forces (excluding translations, rotations) in present geometry:
  || Forces on atoms   || =   0.396494E-02 eV/A.
  || Forces on lattice || =   0.777375E-02 eV/A^3.
  Maximum force component is  0.777375E-02 eV/A.
  Present geometry is converged.

  Symmetry-reduced parameters:
  | atomic   1          0.502099532568944E+00
  | atomic   2          0.220436410346350E-02
  | atomic   3          0.201734078965960E-02
  | atomic   4          0.211692648504965E-02
  | atomic   5          0.216164347403729E-02
  | atomic   6          0.502337440388849E+00
  | atomic   7          0.228344566841681E-02
  | atomic   8          0.502159970018726E+00
  | atomic   9          0.199792544851873E-02
  | atomic  10          0.502218472042380E+00
  | atomic  11          0.502175891045337E+00
  | atomic  12          0.502340346934165E+00
  | atomic  13          0.614296172126760E+00
  | atomic  14          0.120593340106429E+00
  | atomic  15          0.405588522288614E+00
  | atomic  16          0.889993422977432E+00
  | atomic  17          0.883743785362462E+00
  | atomic  18          0.905485872616353E+00
  | atomic  19          0.114318824150525E+00
  | atomic  20          0.383802812485072E+00
  | atomic  21          0.598883215658030E+00
  | atomic  22          0.390139742842134E+00
  | atomic  23          0.620583897503732E+00
  | atomic  24          0.987623370706100E-01
  | atomic  25          0.390076687848504E+00
  | atomic  26          0.883818625080746E+00
  | atomic  27          0.598890444983748E+00
  | atomic  28          0.114249956635007E+00
  | atomic  29          0.120523364953967E+00
  | atomic  30          0.987673628798424E-01
  | atomic  31          0.890049293389817E+00
  | atomic  32          0.620589840633268E+00
  | atomic  33          0.405591503558042E+00
  | atomic  34          0.614298603341512E+00
  | atomic  35          0.383783528012309E+00
  | atomic  36          0.905478780324084E+00
  | lattice  1          0.584297062059062E+01
  | lattice  2          0.595281939365144E+01
  | lattice  3          0.752149818492267E+01
  Symmetry-reduced forces:
  | atomic   1          0.392848431833924E-02
  | atomic   2         -0.236025829763880E-01
  | atomic   3          0.144810576810240E-01
  | atomic   4          0.109873275393126E-01
  | atomic   5          0.307775596899932E-02
  | atomic   6         -0.538311607244556E-02
  | atomic   7         -0.122922792437329E-01
  | atomic   8         -0.169893424911110E-01
  | atomic   9          0.167966174855183E-01
  | atomic  10          0.239292466099685E-02
  | atomic  11         -0.114261964641647E-02
  | atomic  12         -0.103408151975280E-01
  | atomic  13         -0.172080435698414E-02
  | atomic  14         -0.504455792672598E-02
  | atomic  15         -0.133934265258035E-01
  | atomic  16          0.146761165254632E-01
  | atomic  17          0.191038809516590E-01
  | atomic  18         -0.233456494819730E-01
  | atomic  19         -0.129410091006645E-01
  | atomic  20          0.686608632834879E-02
  | atomic  21          0.139358538620950E-01
  | atomic  22         -0.183608768689559E-01
  | atomic  23         -0.236116175046110E-02
  | atomic  24          0.184397569674194E-01
  | atomic  25         -0.507462442479607E-02
  | atomic  26          0.515744841032956E-02
  | atomic  27          0.138231659179794E-01
  | atomic  28          0.166135336161615E-02
  | atomic  29          0.990787990725602E-02
  | atomic  30          0.980022991693400E-02
  | atomic  31          0.527233779435537E-02
  | atomic  32         -0.984801744610533E-02
  | atomic  33         -0.963513383058154E-02
  | atomic  34          0.114710497950502E-01
  | atomic  35          0.148752306706152E-01
  | atomic  36         -0.251785407226384E-01
  | lattice  1          0.777375395823047E-02
  | lattice  2         -0.306939012453707E-02
  | lattice  3          0.179296343955409E-02
------------------------------------------------------------
  Final atomic structure:
                         x [A]             y [A]             z [A]
  lattice_vector         5.84297062        0.00000000        0.00000000
  lattice_vector         0.00000000        5.95281939        0.00000000
  lattice_vector         0.00000000        0.00000000        7.52149818

            atom        -2.90921780        0.01312218        0.01517343  Pd
            atom         0.01236914        0.01286787       -3.74316804  Pd
            atom         0.01334211       -2.96355179        0.01502739  Pd
            atom        -2.90852284       -2.96345701       -3.74314618  Pd
            atom        -2.25365613        0.71787037        3.05063333  Se
            atom        -0.64276520       -0.69205225       -0.71088784  Se
            atom         0.66796153        2.28470883       -3.01699917  Se
            atom         2.27957506       -2.25859553        0.74284074  Se
            atom         2.27920663       -0.69160674       -3.01694479  Se
            atom         0.66755914        0.71745382        0.74287854  Se
            atom        -0.64243875       -2.25856015        3.05065576  Se
            atom        -2.25364193        2.28459403       -0.71094118  Se

  Fractional coordinates:
                         L1                L2                L3
       atom_frac        -0.49790047        0.00220436        0.00201734  Pd
       atom_frac         0.00211693        0.00216164       -0.49766256  Pd
       atom_frac         0.00228345       -0.49784003        0.00199793  Pd
       atom_frac        -0.49778153       -0.49782411       -0.49765965  Pd
       atom_frac        -0.38570383        0.12059334        0.40558852  Se
       atom_frac        -0.11000658       -0.11625621       -0.09451413  Se
       atom_frac         0.11431882        0.38380281       -0.40111678  Se
       atom_frac         0.39013974       -0.37941610        0.09876234  Se
       atom_frac         0.39007669       -0.11618137       -0.40110956  Se
       atom_frac         0.11424996        0.12052336        0.09876736  Se
       atom_frac        -0.10995071       -0.37941016        0.40559150  Se
       atom_frac        -0.38570140        0.38378353       -0.09452122  Se
------------------------------------------------------------

------------------------------------------------------------------------------
  Final output of selected total energy values:

  The following output summarizes some interesting total energy values
  at the end of a run (AFTER all relaxation, molecular dynamics, etc.).

  | Total energy of the DFT / Hartree-Fock s.c.f. calculation      :       -1087911.115411463 eV
  | Final zero-broadening corrected energy (caution - metals only) :       -1087911.116438610 eV
  | For reference only, the value of 1 Hartree used in FHI-aims is :             27.211384500 eV
  | For reference only, the overall average (free atom contribution
  | + realspace contribution) of the electrostatic potential after
  | s.c.f. convergence is                                          :            -16.935903941 eV

  Before relying on these values, please be sure to understand exactly which
  total energy value is referred to by a given number. Different objects may
  all carry the same name 'total energy'. Definitions:

  Total energy of the DFT / Hartree-Fock s.c.f. calculation:
  | Note that this energy does not include ANY quantities calculated after the
  | s.c.f. cycle, in particular not ANY RPA, MP2, etc. many-body perturbation terms.

  Final zero-broadening corrected energy:
  | For metallic systems only, a broadening of the occupation numbers at the Fermi
  | level can be extrapolated back to zero broadening by an electron-gas inspired
  | formula. For all systems that are not real metals, this value can be
  | meaningless and should be avoided.

------------------------------------------------------------------------------
  Methods described in the following list of references were used in this FHI-aims run.
  If you publish the results, please make sure to cite these reference if they apply.
  FHI-aims is an academic code, and for our developers (often, Ph.D. students
  and postdocs), scientific credit in the community is essential.
  Thank you for helping us!

  For any use of FHI-aims, please cite:

    Volker Blum, Ralf Gehrke, Felix Hanke, Paula Havu, Ville Havu,
    Xinguo Ren, Karsten Reuter, and Matthias Scheffler
    'Ab initio molecular simulations with numeric atom-centered orbitals'
    Computer Physics Communications 180, 2175-2196 (2009)
    http://dx.doi.org/10.1016/j.cpc.2009.06.022


  For the analytical stress tensor used in your run, please cite:

    Franz Knuth, Christian Carbogno, Viktor Atalla, Volker Blum, Matthias Scheffler
    'All-electron formalism for total energy strain derivatives and
    stress tensor components for numeric atom-centered orbitals'
    Computer Physics Communications 190, 33-50 (2015).
    http://dx.doi.org/10.1016/j.cpc.2015.01.003


  The provided symmetry information was generated with SPGlib:

    Atsushi Togo, Yusuke Seto, Dimitar Pashov
    SPGlib 1.7.3 obtained from http://spglib.sourceforge.net
    Copyright (C) 2008 Atsushi Togo


  The ELSI infrastructure was used in your run to solve the Kohn-Sham electronic structure.
  Please check out http://elsi-interchange.org to learn more.
  If scalability is important for your project, please acknowledge ELSI by citing:

    V. W-z. Yu, F. Corsetti, A. Garcia, W. P. Huhn, M. Jacquelin, W. Jia,
    B. Lange, L. Lin, J. Lu, W. Mi, A. Seifitokaldani, A. Vazquez-Mayagoitia,
    C. Yang, H. Yang, and V. Blum
    'ELSI: A unified software interface for Kohn-Sham electronic structure solvers'
    Computer Physics Communications 222, 267-285 (2018).
    http://dx.doi.org/10.1016/j.cpc.2017.09.007


  For the real-space grid partitioning and parallelization used in this calculation, please cite:

    Ville Havu, Volker Blum, Paula Havu, and Matthias Scheffler,
    'Efficient O(N) integration for all-electron electronic structure calculation'
    'using numerically tabulated basis functions'
    Journal of Computational Physics 228, 8367-8379 (2009).
    http://dx.doi.org/10.1016/j.jcp.2009.08.008

  Of course, there are many other important community references, e.g., those cited in the
  above references. Our list is limited to references that describe implementations in the
  FHI-aims code. The reason is purely practical (length of this list) - please credit others as well.

------------------------------------------------------------
          Leaving FHI-aims.
          Date     :  20200420, Time     :  214823.407

          Computational steps:
          | Number of self-consistency cycles          :          108
          | Number of SCF (re)initializations          :            5
          | Number of relaxation steps                 :            4

          Detailed time accounting                     :  max(cpu_time)    wall_clock(cpu1)
          | Total time                                 :     3697.046 s        3697.960 s
          | Preparation time                           :        0.556 s           0.617 s
          | Boundary condition initalization           :        0.754 s           0.757 s
          | Grid partitioning                          :        1.743 s           1.742 s
          | Preloading free-atom quantities on grid    :        4.618 s           4.619 s
          | Free-atom superposition energy             :        0.689 s           0.689 s
          | Total time for integrations                :      304.398 s         304.380 s
          | Total time for solution of K.-S. equations :     1546.851 s        1548.731 s
          | Total time for EV reorthonormalization     :       18.039 s          17.654 s
          | Total time for density & force components  :     1380.416 s        1380.290 s
          | Total time for mixing & preconditioning    :       76.051 s          76.054 s
          | Total time for Hartree multipole update    :        0.471 s           0.474 s
          | Total time for Hartree multipole sum       :      243.071 s         243.063 s
          | Total time for total energy evaluation     :        2.353 s           2.334 s
          | Total time for scaled ZORA corrections     :        0.000 s           0.000 s
          | Total time for vdW correction              :      111.684 s         111.691 s

          Partial memory accounting:
          | Residual value for overall tracked memory usage across tasks:     0.000000 MB (should be 0.000000 MB)
          | Peak values for overall tracked memory usage:
          |   Minimum:      470.469 MB (on task 17 after allocating d_wave)
          |   Maximum:      475.470 MB (on task  5 after allocating d_wave)
          |   Average:      472.474 MB
          | Largest tracked array allocation:
          |   Minimum:      212.048 MB (KS_eigenvector_complex on task  0)
          |   Maximum:      214.148 MB (KS_eigenvector_complex on task  1)
          |   Average:      212.748 MB
          Note:  These values currently only include a subset of arrays which are explicitly tracked.
          The "true" memory usage will be greater.

          Have a nice day.
------------------------------------------------------------
