------------------------------------------------------------
          Invoking FHI-aims ...

          When using FHI-aims, please cite the following reference:

            Volker Blum, Ralf Gehrke, Felix Hanke, Paula Havu,
            Ville Havu, Xinguo Ren, Karsten Reuter, and Matthias Scheffler,
            'Ab Initio Molecular Simulations with Numeric Atom-Centered Orbitals',
            Computer Physics Communications 180, 2175-2196 (2009)

          In addition, many other developments in FHI-aims are likely important for
          your particular application. A partial list of references is given at the end of
          this file. Thank you for giving credit to the authors of these developments.

          For any questions about FHI-aims, please visit our slack channel at

            https://fhi-aims.slack.com

          and our main development and support site at

            https://aims-git.rz-berlin.mpg.de .

          The latter site, in particular, has a wiki to collect information, as well
          as an issue tracker to log discussions, suggest improvements, and report issues
          or bugs. https://aims-git.rz-berlin.mpg.de is also the main development site
          of the project and all new and updated code versions can be obtained there.
          Please send an email to aims-coordinators@fhi-berlin.mpg.de and we will add
          you to these sites. They are for you and everyone is welcome there.

------------------------------------------------------------



  Date     :  20201119, Time     :  195010.032
  Time zero on CPU 1             :   0.171875000000000E+00  s.
  Internal wall clock time zero  :           375047410.032  s.

  FHI-aims created a unique identifier for this run for later identification
  aims_uuid : D7A712FD-8784-4F5F-A2EF-89BB626228FC

  Build configuration of the current instance of FHI-aims
  -------------------------------------------------------
  FHI-aims version      : 201103
  Commit number         : faf196098
  CMake host system     : Linux-4.4.0-19041-Microsoft
  CMake version         : 3.18.4
  Fortran compiler      : /home/roman/miniconda3/envs/aims-env/bin/mpifort (GNU) version 7.5.0
  Fortran compiler flags: -O2 -ffree-line-length-none
  C compiler            : /home/roman/miniconda3/envs/aims-env/bin/gcc (GNU) version 7.5.0
  C compiler flags      : -O2 -funroll-loops -std=gnu99
  Using MPI
  Using LibXC
  Using i-PI
  Using RLSY
  Linking against: /home/roman/miniconda3/envs/aims-env/lib/libmkl_intel_lp64.so
                   /home/roman/miniconda3/envs/aims-env/lib/libmkl_sequential.so
                   /home/roman/miniconda3/envs/aims-env/lib/libmkl_core.so

  Using        2 parallel tasks.
  Task        0 on host DESKTOP-A6RSI3L reporting.
  Task        1 on host DESKTOP-A6RSI3L reporting.

  Performing system and environment tests:
  *** Environment variable OMP_NUM_THREADS is not set
  *** For performance reasons you might want to set it to 1
  | Checking for ScaLAPACK...
  | No ScaLAPACK compiled in.

  Obtaining array dimensions for all initial allocations:
  
  -----------------------------------------------------------------------
  Parsing control.in (first pass over file, find array dimensions only).
  The contents of control.in will be repeated verbatim below
  unless switched off by setting 'verbatim_writeout .false.' .
  in the first line of control.in .
  -----------------------------------------------------------------------
  
  #===============================================================================
  # FHI-aims file: control.in
  # Created using the Atomic Simulation Environment (ASE)
  # Thu Nov 19 19:47:51 2020
  #===============================================================================
  xc                                 pbe
  check_stacksize .false.
  relativistic atomic_zora scalar
  # include_spin_orbit
  ## Common choices of dispersion methods:
  # 	 vdw_correction_hirshfeld
  # 	 many_body_dispersion
  # 	 many_body_dispersion_nl
  spin                               none
  k_grid                             6 6 6
  
  ### SCF settings
  adjust_scf 	 always 	 3
  sc_iter_limit 	 100
  # frozen_core_scf 	 .true.
  # charge_mix_param 	 0.02
  # occupation_type 	 gaussian 	 0.1
  # sc_accuracy_rho 	 1E-6 	 	 # electron density convergence
  # elsi_restart 	 read_and_write 	 1000
  
  ### Mulliken-projected band structure section
  ## Brillouin Zone section Nr. 1
  output band_mulliken 0.000000 0.000000 0.000000 	 0.000000 0.500000 0.000000 	 31 	 G X
  output band_mulliken 0.000000 0.500000 0.000000 	 0.500000 0.500000 0.000000 	 31 	 X M
  output band_mulliken 0.500000 0.500000 0.000000 	 0.000000 0.000000 0.000000 	 31 	 M G
  output band_mulliken 0.000000 0.000000 0.000000 	 0.500000 0.500000 0.500000 	 31 	 G R
  output band_mulliken 0.500000 0.500000 0.500000 	 0.000000 0.500000 0.000000 	 31 	 R X
  ## Brillouin Zone section Nr. 2
  output band_mulliken 0.500000 0.500000 0.000000 	 0.500000 0.500000 0.500000 	 31 	 M R
  # band_mulliken_orbit_num 50 	 # number of orbitals to be written out, default is 50 for scalar and 100 for soc#===============================================================================
  
  ################################################################################
  #
  #  FHI-aims code project
  #  VB, Fritz-Haber Institut, 2009
  #
  #  Suggested "light" defaults for Fe atom (to be pasted into control.in file)
  #  Be sure to double-check any results obtained with these settings for post-processing,
  #  e.g., with the "tight" defaults and larger basis sets.
  #
  ################################################################################
    species        Fe
  #     global species definitions
      nucleus             26
      mass                55.845
  #
      l_hartree           4
  #
      cut_pot             3.5          1.5  1.0
      basis_dep_cutoff    1e-4
  #
      radial_base         51 5.0
      radial_multiplier   1
      angular_grids       specified
        division   0.4337   50
        division   0.8154  110
        division   1.1046  194
        division   1.3713  302
  #      division   1.5424  434
  #      division   1.7365  590
  #      division   1.9587  770
  #      division   1.9990  974
  #      division   2.4139 1202
  #      outer_grid  1202
        outer_grid  302
  ################################################################################
  #
  #  Definition of "minimal" basis
  #
  ################################################################################
  #     valence basis states
      valence      4  s   2.
      valence      3  p   6.
      valence      3  d   6.
  #     ion occupancy
      ion_occ      4  s   1.
      ion_occ      3  p   6.
      ion_occ      3  d   5.
  ################################################################################
  #
  #  Suggested additional basis functions. For production calculations,
  #  uncomment them one after another (the most important basis functions are
  #  listed first).
  #
  #  Constructed for dimers: 1.45 A, 1.725 A, 2.25 A, 3.00 A, 4.00 A
  #
  ################################################################################
  #  "First tier" - improvements: -300.53 meV to -10.50 meV
       hydro 4 f 9.4
       hydro 2 p 2.2
       hydro 5 g 12.4
       hydro 3 d 3.1
       ionic 4 s auto
  #  "Second tier" - improvements: -16.31 meV to -0.65 meV
  #     hydro 3 d 6.2
  #     hydro 6 h 19.2
  #     hydro 4 f 15.2
  #     hydro 4 f 6.6
  #     hydro 3 p 3
  #     hydro 5 g 13.2
  #     hydro 1 s 0.65
  #  "Third tier" - improvements: -1.60 meV to -0.10 meV
  #     hydro 4 d 7.8
  #     hydro 4 p 19.6
  #     hydro 4 d 10.4
  #     ionic 4 p auto
  #     hydro 6 h 17.6
  #     hydro 5 f 27.2
  #     hydro 4 s 4.8
  #  "Fourth tier": improvements -0.13 meV and below
  #     hydro 5 f 12
  #     hydro 5 g 10.4
  #     hydro 5 p 8.4
  #     hydro 4 d 14.8
  #     hydro 2 s 1.9
  ################################################################################
  #
  #  FHI-aims code project
  #  VB, Fritz-Haber Institut, 2009
  #
  #  Suggested "light" defaults for S atom (to be pasted into control.in file)
  #  Be sure to double-check any results obtained with these settings for post-processing,
  #  e.g., with the "tight" defaults and larger basis sets.
  #
  ################################################################################
    species        S
  #     global species definitions
      nucleus             16
      mass                32.065
  #
      l_hartree           4
  #
      cut_pot             3.5          1.5  1.0
      basis_dep_cutoff    1e-4
  #
      radial_base         44 5.0
      radial_multiplier   1
      angular_grids       specified
        division   0.4665  110
        division   0.5810  194
        division   0.7139  302
  #      division   0.8274  434
  #      division   0.9105  590
  #      division   1.0975  770
  #      division   1.2028  974
  #      outer_grid  974
        outer_grid  302
  ################################################################################
  #
  #  Definition of "minimal" basis
  #
  ################################################################################
  #     valence basis states
      valence      3  s   2.
      valence      3  p   4.
  #     ion occupancy
      ion_occ      3  s   1.
      ion_occ      3  p   3.
  ################################################################################
  #
  #  Suggested additional basis functions. For production calculations,
  #  uncomment them one after another (the most important basis functions are
  #  listed first).
  #
  #  Constructed for dimers: 1.6 A, 1.9 A, 2.5 A, 3.25 A, 4.0 A
  #
  ################################################################################
  #  "First tier" - improvements: -652.81 meV to -45.53 meV
       ionic 3 d auto
       hydro 2 p 1.8
       hydro 4 f 7
       ionic 3 s auto
  #  "Second tier" - improvements: -30.20 meV to -1.74 meV
  #     hydro 4 d 6.2
  #     hydro 5 g 10.8
  #     hydro 4 p 4.9
  #     hydro 5 f 10
  #     hydro 1 s 0.8
  #  "Third tier" - improvements: -1.04 meV to -0.20 meV
  #     hydro 3 d 3.9
  #     hydro 3 d 2.7
  #     hydro 5 g 12
  #     hydro 4 p 10.4
  #     hydro 5 f 12.4
  #     hydro 2 s 1.9
  #  "Fourth tier" - improvements: -0.35 meV to -0.06 meV
  #     hydro 4 d 10.4
  #     hydro 4 p 7.2
  #     hydro 4 d 10
  #     hydro 5 g 19.2
  #     hydro 4 s 12
  #
  
  -----------------------------------------------------------------------
  Completed first pass over input file control.in .
  -----------------------------------------------------------------------
  
  
  -----------------------------------------------------------------------
  Parsing geometry.in (first pass over file, find array dimensions only).
  The contents of geometry.in will be repeated verbatim below
  unless switched off by setting 'verbatim_writeout .false.' .
  in the first line of geometry.in .
  -----------------------------------------------------------------------
  
  #=======================================================
  # FHI-aims file: geometry.in
  # Created using the Atomic Simulation Environment (ASE)
  # Thu Nov 19 19:47:51 2020
  #=======================================================
  lattice_vector 5.4100000000000001 0.0000000000000000 0.0000000000000000
  lattice_vector 0.0000000000000000 5.4100000000000001 0.0000000000000000
  lattice_vector 0.0000000000000000 0.0000000000000000 5.4100000000000001
  atom 0.0000000000000000 0.0000000000000000 0.0000000000000000 Fe
  atom 0.0000000000000000 2.7050000000000001 2.7050000000000001 Fe
  atom 2.7050000000000001 0.0000000000000000 2.7050000000000001 Fe
  atom 2.7050000000000001 2.7050000000000001 0.0000000000000000 Fe
  atom 2.0882600000000000 2.0882600000000000 2.0882600000000000 S
  atom 3.3217400000000001 3.3217400000000001 3.3217400000000001 S
  atom 4.7932600000000001 0.6167400000000000 3.3217400000000001 S
  atom 0.6167400000000000 4.7932600000000001 2.0882600000000000 S
  atom 3.3217400000000001 4.7932600000000001 0.6167400000000000 S
  atom 2.0882600000000000 0.6167400000000000 4.7932600000000001 S
  atom 0.6167400000000000 3.3217400000000001 4.7932600000000001 S
  atom 4.7932600000000001 2.0882600000000000 0.6167400000000000 S
  
  -----------------------------------------------------------------------
  Completed first pass over input file geometry.in .
  -----------------------------------------------------------------------
  

  Basic array size parameters:
  | Number of species                 :        2
  | Number of atoms                   :       12
  | Number of lattice vectors         :        3
  | Max. basis fn. angular momentum   :        4
  | Max. atomic/ionic basis occupied n:        4
  | Max. number of basis fn. types    :        3
  | Max. radial fns per species/type  :        7
  | Max. logarithmic grid size        :     1397
  | Max. radial integration grid size :       51
  | Max. angular integration grid size:      302
  | Max. angular grid division number :        8
  | Radial grid for Hartree potential :     1397
  | Number of spin channels           :        1

------------------------------------------------------------
          Reading file control.in.
------------------------------------------------------------
  XC: Using PBE gradient-corrected functionals.
  Scalar relativistic treatment of kinetic energy: on-site free-atom approximation to ZORA.
  Spin treatment: No spin polarisation.
  Found k-point grid:         6         6         6
  S.C.F. convergence parameters will be adjusted in iteration number     3 of each new s.c.f. cycle.
  Maximum number of s.-c. iterations  :   100
  Mulliken analysis of all k points in band will be performed

  Plot band    1
  | begin  0.000000  0.000000  0.000000
  | end    0.000000  0.500000  0.000000
  | number of points:   31
  Mulliken analysis of all k points in band will be performed

  Plot band    2
  | begin  0.000000  0.500000  0.000000
  | end    0.500000  0.500000  0.000000
  | number of points:   31
  Mulliken analysis of all k points in band will be performed

  Plot band    3
  | begin  0.500000  0.500000  0.000000
  | end    0.000000  0.000000  0.000000
  | number of points:   31
  Mulliken analysis of all k points in band will be performed

  Plot band    4
  | begin  0.000000  0.000000  0.000000
  | end    0.500000  0.500000  0.500000
  | number of points:   31
  Mulliken analysis of all k points in band will be performed

  Plot band    5
  | begin  0.500000  0.500000  0.500000
  | end    0.000000  0.500000  0.000000
  | number of points:   31
  Mulliken analysis of all k points in band will be performed

  Plot band    6
  | begin  0.500000  0.500000  0.000000
  | end    0.500000  0.500000  0.500000
  | number of points:   31

  Reading configuration options for species Fe                  .
  | Found nuclear charge :  26.0000
  | Found atomic mass :    55.844999999999999      amu
  | Found l_max for Hartree potential  :   4
  | Found cutoff potl. onset [A], width [A], scale factor :    3.50000    1.50000    1.00000
  | Threshold for basis-dependent cutoff potential is   0.100000E-03
  | Found data for basic radial integration grid :    51 points, outermost radius =    5.000 A
  | Found multiplier for basic radial grid :   1
  | Found angular grid specification: user-specified.
  | Specified grid contains     5 separate shells.
  | Check grid settings after all constraints further below.
  | Found free-atom valence shell :  4 s   2.000
  | Found free-atom valence shell :  3 p   6.000
  | Found free-atom valence shell :  3 d   6.000
  | Found free-ion valence shell :  4 s   1.000
  | Found free-ion valence shell :  3 p   6.000
  | Found free-ion valence shell :  3 d   5.000
  | Found hydrogenic basis function :  4 f   9.400
  | Found hydrogenic basis function :  2 p   2.200
  | Found hydrogenic basis function :  5 g  12.400
  | Found hydrogenic basis function :  3 d   3.100
  | Found ionic basis function :  4 s , default cutoff radius.
  Species Fe                  : Missing cutoff potential type.
  Defaulting to exp(1/x)/(1-x)^2 type cutoff potential.
  Species Fe: No 'logarithmic' tag. Using default grid for free atom:
  | Default logarithmic grid data [bohr] : 0.1000E-03 0.1000E+03 0.1012E+01
  | Will include ionic basis functions of  2.0-fold positive Fe                   ion.
  Species Fe: On-site basis accuracy parameter (for Gram-Schmidt orthonormalisation) not specified.
  Using default value basis_acc =  0.1000000E-03.
  Species Fe                  : Using default innermost maximum threshold i_radial=  2 for radial functions.
  Species Fe                  : Default cutoff onset for free atom density etc. : 0.35000000E+01 AA.
  Species Fe                  : Basic radial grid will be enhanced according to radial_multiplier =   1, to contain    51 grid points.

  Reading configuration options for species S                   .
  | Found nuclear charge :  16.0000
  | Found atomic mass :    32.064999999999998      amu
  | Found l_max for Hartree potential  :   4
  | Found cutoff potl. onset [A], width [A], scale factor :    3.50000    1.50000    1.00000
  | Threshold for basis-dependent cutoff potential is   0.100000E-03
  | Found data for basic radial integration grid :    44 points, outermost radius =    5.000 A
  | Found multiplier for basic radial grid :   1
  | Found angular grid specification: user-specified.
  | Specified grid contains     4 separate shells.
  | Check grid settings after all constraints further below.
  | Found free-atom valence shell :  3 s   2.000
  | Found free-atom valence shell :  3 p   4.000
  | Found free-ion valence shell :  3 s   1.000
  | Found free-ion valence shell :  3 p   3.000
  | Found ionic basis function :  3 d , default cutoff radius.
  | Found hydrogenic basis function :  2 p   1.800
  | Found hydrogenic basis function :  4 f   7.000
  | Found ionic basis function :  3 s , default cutoff radius.
  Species S                   : Missing cutoff potential type.
  Defaulting to exp(1/x)/(1-x)^2 type cutoff potential.
  Species S : No 'logarithmic' tag. Using default grid for free atom:
  | Default logarithmic grid data [bohr] : 0.1000E-03 0.1000E+03 0.1012E+01
  | Will include ionic basis functions of  2.0-fold positive S                    ion.
  Species S : On-site basis accuracy parameter (for Gram-Schmidt orthonormalisation) not specified.
  Using default value basis_acc =  0.1000000E-03.
  Species S                   : Using default innermost maximum threshold i_radial=  2 for radial functions.
  Species S                   : Default cutoff onset for free atom density etc. : 0.35000000E+01 AA.
  Species S                   : Basic radial grid will be enhanced according to radial_multiplier =   1, to contain    44 grid points.

  Finished reading input file 'control.in'.

------------------------------------------------------------


------------------------------------------------------------
          Reading geometry description geometry.in.
------------------------------------------------------------
  | The smallest distance between any two atoms is         2.13645003 AA.
  | The first atom of this pair is atom number                      7 .
  | The second atom of this pair is atom number                     8 .
  | Wigner-Seitz cell of the first atom image           0     0     1 .
  | (The Wigner-Seitz cell of the second atom is 0 0 0  by definition.)

  Symmetry information by spglib:
  | Precision set to  0.1E-04
  | Number of Operations  : 24
  | Space group           : 205
  | International         : Pa3
  | Schoenflies           : Th^6
  Input structure read successfully.
  The structure contains       12 atoms,  and a total of        232.000 electrons.

  Input geometry:
  | Unit cell:
  |        5.41000000        0.00000000        0.00000000
  |        0.00000000        5.41000000        0.00000000
  |        0.00000000        0.00000000        5.41000000
  | Atomic structure:
  |       Atom                x [A]            y [A]            z [A]
  |    1: Species Fe            0.00000000        0.00000000        0.00000000
  |    2: Species Fe            0.00000000        2.70500000        2.70500000
  |    3: Species Fe            2.70500000        0.00000000        2.70500000
  |    4: Species Fe            2.70500000        2.70500000        0.00000000
  |    5: Species S             2.08826000        2.08826000        2.08826000
  |    6: Species S             3.32174000        3.32174000        3.32174000
  |    7: Species S             4.79326000        0.61674000        3.32174000
  |    8: Species S             0.61674000        4.79326000        2.08826000
  |    9: Species S             3.32174000        4.79326000        0.61674000
  |   10: Species S             2.08826000        0.61674000        4.79326000
  |   11: Species S             0.61674000        3.32174000        4.79326000
  |   12: Species S             4.79326000        2.08826000        0.61674000

  Lattice parameters for 3D lattice (in Angstroms) :     5.410000    5.410000    5.410000
  Angle(s) between unit vectors (in degrees)       :    90.000000   90.000000   90.000000


  Quantities derived from the lattice vectors:
  | Reciprocal lattice vector 1:  1.161402  0.000000  0.000000
  | Reciprocal lattice vector 2:  0.000000  1.161402  0.000000
  | Reciprocal lattice vector 3:  0.000000  0.000000  1.161402
  | Unit cell volume                               :   0.158340E+03  A^3

  Fractional coordinates:
                         L1                L2                L3
       atom_frac         0.00000000        0.00000000        0.00000000  Fe
       atom_frac         0.00000000        0.50000000        0.50000000  Fe
       atom_frac         0.50000000        0.00000000        0.50000000  Fe
       atom_frac         0.50000000        0.50000000        0.00000000  Fe
       atom_frac         0.38600000        0.38600000        0.38600000  S
       atom_frac         0.61400000        0.61400000        0.61400000  S
       atom_frac         0.88600000        0.11400000        0.61400000  S
       atom_frac         0.11400000        0.88600000        0.38600000  S
       atom_frac         0.61400000        0.88600000        0.11400000  S
       atom_frac         0.38600000        0.11400000        0.88600000  S
       atom_frac         0.11400000        0.61400000        0.88600000  S
       atom_frac         0.88600000        0.38600000        0.11400000  S


  Finished reading input file 'control.in'.


------------------------------------------------------------
          Reading geometry description geometry.in.
------------------------------------------------------------

  Consistency checks for the contents of control.in are next.

  MPI_IN_PLACE appears to work with this MPI implementation.
  | Keeping use_mpi_in_place .true. (see manual).
  Target number of points in a grid batch is not set. Defaulting to  100
  Method for grid partitioning is not set. Defaulting to parallel hash+maxmin partitioning.
  Batch size limit is not set. Defaulting to    200
  By default, will store active basis functions for each batch.
  If in need of memory, prune_basis_once .false. can be used to disable this option.
  communication_type for Hartree potential was not specified.
  Defaulting to calc_hartree .
  Defaulting to Pulay charge density mixer.
  Pulay mixer: Number of relevant iterations not set.
  Defaulting to    8 iterations.
  Pulay mixer: Number of initial linear mixing iterations not set.
  Defaulting to    0 iterations.
  Work space size for distributed Hartree potential not set.
  Defaulting to   0.200000E+03 MB.
  Mixing parameter for charge density mixing has not been set.
  Using default: charge_mix_param =     0.0500.
  The mixing parameter will be adjusted in iteration number     3 of each s.c.f. cycle (i.e., each geometry step).
  Algorithm-dependent basis array size parameters:
  | n_max_pulay                         :        8
  Presetting      1001 iterations before the initial mixing cycle
  is restarted anyway using the sc_init_iter criterion / keyword.
  Presetting a factor      1.000 between actual scf density residual
  and density convergence criterion sc_accuracy_rho below which sc_init_iter
  takes no effect.
 * No s.c.f. convergence criteria (sc_accuracy_*) were provided in control.in.
 * The run will proceed with a reasonable default guess, but please check whether.
 * the s.c.f. cycles seem to take too much or too little time.
  Calculation of forces was not defined in control.in. No forces will be calculated.
  Geometry relaxation not requested: no relaxation will be performed.
 * Notice: The s.c.f. convergence criterion sc_accuracy_rho was not provided.
 * We used to stop in this case, and ask the user to provide reasonable
 * scf convergence criteria. However, this led some users to employ criteria
 * that led to extremely long run times, e.g., for simple relaxation.
 * We now preset a default value for sc_accuracy_rho if it is not set.
 * You may still wish to check if this setting is too tight or too loose for your needs.
 * Based on n_atoms, FHI-aims chose sc_accuracy_rho =  0.200000E-05 .
  No accuracy limit for integral partition fn. given. Defaulting to  0.1000E-14.
  No threshold value for u(r) in integrations given. Defaulting to  0.1000E-05.
  No occupation type (smearing scheme) given. Defaulting to Gaussian broadening, width =  0.1000E-01 eV.
  The width will be adjusted in iteration number     3 of each s.c.f. cycle (i.e., each geometry step).
  S.C.F. convergence parameters will be adjusted in iteration number     3 of the first full s.c.f. cycle only.
  No accuracy for occupation numbers given. Defaulting to  0.1000E-12.
  No threshold value for occupation numbers given. Defaulting to  0.0000E+00.
  No accuracy for fermi level given. Defaulting to  0.1000E-19.
  Maximum # of iterations to find E_F not set. Defaulting to  200.
  Preferred method for the eigenvalue solver ('KS_method') not specified in 'control.in'.
  Defaulting to serial version, LAPACK (via ELSI), since more k-points than CPUs available.
  Will not use alltoall communication since running on < 1024 CPUs.
  Threshold for basis singularities not set.
  Default threshold for basis singularities:  0.1000E-04
  partition_type (choice of integration weights) for integrals was not specified.
  | Using a version of the partition function of Stratmann and coworkers ('stratmann_sparse').
  | At each grid point, the set of atoms used to build the partition table is smoothly restricted to
  | only those atoms whose free-atom density would be non-zero at that grid point.
  Partitioning for Hartree potential was not defined. Using partition_type for integrals.
  | Adjusted default value of keyword multip_moments_threshold to:       0.10000000E-11
  | This value may affect high angular momentum components of the Hartree potential in periodic systems.
  Angular momentum expansion for Kerker preconditioner not set explicitly.
  | Using default value of   0
  No explicit requirement for turning off preconditioner.
  | By default, it will be turned off when the charge convergence reaches
  | sc_accuracy_rho  =   0.200000E-05
  No special mixing parameter while Kerker preconditioner is on.
  Using default: charge_mix_param =     0.0500.
  No q(lm)/r^(l+1) cutoff set for long-range Hartree potential.
  | Using default value of  0.100000E-09 .
  | Verify using the multipole_threshold keyword.
  Defaulting to new monopole extrapolation.
  Density update method: automatic selection selected.
  Using density matrix based charge density update.
  Using density matrix based charge density update.
  Using packed matrix style: index .
  Defaulting to use time-reversal symmetry for k-point grid.
  Charge integration errors on the 3D integration grid will be compensated
  by explicit normalization and distribution of residual charges.
  Use the "compensate_multipole_errors" flag to change this behaviour.
  Set 'collect_eigenvectors' to be '.true.' for all serial calculations. This is mandatory.
  Set 'collect_eigenvectors' to be '.true.' for KS_method lapack_fast and serial.

  Consistency checks for the contents of geometry.in are next.


  Range separation radius for Ewald summation (hartree_convergence_parameter):      3.32337290 bohr.
  Number of empty states per atom not set in control.in - providing a guess from actual geometry.
  | Total number of empty states used during s.c.f. cycle:       46
  If you use a very high smearing, use empty_states (per atom!) in control.in to increase this value.

  Structure-dependent array size parameters: 
  | Maximum number of distinct radial functions  :       21
  | Maximum number of basis functions            :      360
  | Number of Kohn-Sham states (occupied + empty):      162
------------------------------------------------------------

------------------------------------------------------------
          Preparing all fixed parts of the calculation.
------------------------------------------------------------
  Determining machine precision:
     2.2250738585072014E-308
  Setting up grids for atomic and cluster calculations.

  Creating wave function, potential, and density for free atoms.

  Species: Fe

  List of occupied orbitals and eigenvalues:
    n    l              occ      energy [Ha]    energy [eV]
    1    0           2.0000      -259.347078     -7057.1931
    2    0           2.0000       -30.151288      -820.4583
    3    0           2.0000        -3.446299       -93.7786
    4    0           2.0000        -0.186616        -5.0781
    2    1           6.0000       -25.685596      -698.9406
    3    1           6.0000        -2.197354       -59.7930
    3    2           6.0000        -0.267356        -7.2751


  Species: S

  List of occupied orbitals and eigenvalues:
    n    l              occ      energy [Ha]    energy [eV]
    1    0           2.0000       -88.678258     -2413.0582
    2    0           2.0000        -7.779365      -211.6873
    3    0           2.0000        -0.631865       -17.1939
    2    1           6.0000        -5.749610      -156.4549
    3    1           4.0000        -0.255301        -6.9471


  Adding cutoff potential to free-atom effective potential.
  Creating fixed part of basis set: Ionic, confined, hydrogenic.

  Fe                   ion:

  List of free ionic orbitals and eigenvalues:
    n    l      energy [Ha]    energy [eV]
    1    0      -260.321188     -7083.6999
    2    0       -31.136355      -847.2633
    3    0        -4.393974      -119.5661
    4    0        -0.821894       -22.3649
    2    1       -26.668999      -725.7004
    3    1        -3.137384       -85.3726
    3    2        -1.170461       -31.8499


  List of ionic basis orbitals and eigenvalues:
    n    l      energy [Ha]    energy [eV]    outer radius [A]
    4    0        -0.821823       -22.3629       4.554938


  Fe                   hydrogenic:

  List of hydrogenic basis orbitals: 
    n    l      effective z      eigenvalue [eV]  inner max. [A]     outer max. [A]     outer radius [A]   
    4    3         9.400000       -75.1370           0.896093           0.896093           3.791786
    2    1         2.200000       -16.4552           0.964292           0.964292           4.554938
    5    4        12.400000       -83.6801           1.063365           1.063365           4.030789
    3    2         3.100000       -14.4291           1.515830           1.515830           4.610964


  S                    ion:

  List of free ionic orbitals and eigenvalues:
    n    l      energy [Ha]    energy [eV]
    1    0       -89.703778     -2440.9640
    2    0        -8.775428      -238.7916
    3    0        -1.470343       -40.0101
    2    1        -6.747660      -183.6132
    3    1        -1.048627       -28.5346


  List of ionic basis orbitals and eigenvalues:
    n    l      energy [Ha]    energy [eV]    outer radius [A]
    3    2        -0.495221       -13.4756       4.539062
    3    0        -1.470325       -40.0096       3.642502


  S                    hydrogenic:

  List of hydrogenic basis orbitals: 
    n    l      effective z      eigenvalue [eV]  inner max. [A]     outer max. [A]     outer radius [A]   
    2    1         1.800000       -10.9749           1.168531           1.168531           4.594893
    4    3         7.000000       -41.6658           1.212182           1.212182           4.539062

  Creating atomic-like basis functions for current effective potential.

  Species Fe                  :

  List of atomic basis orbitals and eigenvalues:
    n    l      energy [Ha]    energy [eV]    outer radius [A]
    1    0      -259.347078     -7057.1931       0.409790
    2    0       -30.151288      -820.4583       1.216422
    3    0        -3.446299       -93.7786       3.438507
    4    0        -0.186616        -5.0781       4.610964
    2    1       -25.685596      -698.9406       1.277383
    3    1        -2.197354       -59.7930       3.981813
    3    2        -0.267356        -7.2751       4.499593


  Species S                   :

  List of atomic basis orbitals and eigenvalues:
    n    l      energy [Ha]    energy [eV]    outer radius [A]
    1    0       -88.678258     -2413.0582       0.682391
    2    0        -7.779365      -211.6873       2.289014
    3    0        -0.631865       -17.1939       4.483910
    2    1        -5.749610      -156.4549       2.555240
    3    1        -0.255301        -6.9471       4.539062

  Assembling full basis from fixed parts.
  | Species Fe :   atomic orbital   1 s accepted.
  | Species Fe :   atomic orbital   2 s accepted.
  | Species Fe :   atomic orbital   3 s accepted.
  | Species Fe :    ionic orbital   4 s accepted.
  | Species Fe :   atomic orbital   4 s accepted.
  | Species Fe :   atomic orbital   2 p accepted.
  | Species Fe :   atomic orbital   3 p accepted.
  | Species Fe :    hydro orbital   2 p accepted.
  | Species Fe :   atomic orbital   3 d accepted.
  | Species Fe :    hydro orbital   3 d accepted.
  | Species Fe :    hydro orbital   4 f accepted.
  | Species Fe :    hydro orbital   5 g accepted.
  | Species S :   atomic orbital   1 s accepted.
  | Species S :   atomic orbital   2 s accepted.
  | Species S :    ionic orbital   3 s accepted.
  | Species S :   atomic orbital   3 s accepted.
  | Species S :   atomic orbital   2 p accepted.
  | Species S :   atomic orbital   3 p accepted.
  | Species S :    hydro orbital   2 p accepted.
  | Species S :    ionic orbital   3 d accepted.
  | Species S :    hydro orbital   4 f accepted.

  Basis size parameters after reduction:
  | Total number of radial functions:       21
  | Total number of basis functions :      360

  Per-task memory consumption for arrays in subroutine allocate_ext:
  |           7.519920MB.
  Testing on-site integration grid accuracy.
  |  Species  Function  <phi|h_atom|phi> (log., in eV)  <phi|h_atom|phi> (rad., in eV)
           1        1              -7057.1930710306              -7057.1872777124
           1        2               -820.4582952878               -820.4582331439
           1        3                -93.7785623021                -93.7785610589
           1        4                 -4.2201457338                 -4.2209190008
           1        5                  6.4834568061                  6.3497174940 ***
           1        6               -698.9406259938               -698.9406257532
           1        7                -59.7930400084                -59.7930399016
           1        8                  2.2031040148                  2.1993518317
           1        9                 -7.2752599110                 -7.2754441096
           1       10                  7.3532119403                  7.3196728658 ***
           1       11                 40.5776732000                 40.5777100294
           1       12                 61.2252577499                 61.2251765791
           2       13              -2413.0581659109              -2413.0570554886
           2       14               -211.6872814127               -211.6872738937
           2       15                -16.9208611991                -16.9208255642
           2       16                  7.5845503345                  7.5614252779
           2       17               -156.4548540501               -156.4548540107
           2       18                 -6.9485729304                 -6.9508389945
           2       19                  7.5803076288                  7.5258504832 ***
           2       20                  6.1173006980                  6.1127563631
           2       21                 24.7512183535                 24.7503558869
 * Note: Onsite integrals marked "***" above are less accurate than
 * onsite_accuracy_threshold =    0.03000 eV. Usually, this is harmless.
 * When in doubt, tighten the "radial" and/or "radial_multiplier" flags to check.

  Preparing densities etc. for the partition functions (integrals / Hartree potential).

  Preparations completed.
  max(cpu_time)          :      0.562 s.
  Wall clock time (cpu1) :      0.645 s.
------------------------------------------------------------

------------------------------------------------------------
          Begin self-consistency loop: Initialization.

          Date     :  20201119, Time     :  195010.728
------------------------------------------------------------

  Initializing index lists of integration centers etc. from given atomic structure:
  Mapping all atomic coordinates to central unit cell.

  Initializing the k-points
  Using symmetry for reducing the k-points
  | k-points reduced from:      216 to      112
  | Number of k-points                             :       112
  The eigenvectors in the calculations are COMPLEX.
  | K-points in task   0:        56
  | K-points in task   1:        56
  | Number of basis functions in the Hamiltonian integrals :      4806
  | Number of basis functions in a single unit cell        :       360
  | Number of centers in hartree potential         :      1283
  | Number of centers in hartree multipole         :       774
  | Number of centers in electron density summation:       537
  | Number of centers in basis integrals           :       588
  | Number of centers in integrals                 :       217
  | Number of centers in hamiltonian               :       537
  | Consuming        154 KiB for k_phase.
  | Number of super-cells (origin) [n_cells]                     :         343
  | Number of super-cells (after PM_index) [n_cells]             :          88
  | Number of super-cells in hamiltonian [n_cells_in_hamiltonian]:          88
  | Size of matrix packed + index [n_hamiltonian_matrix_size] :     1051377
  | Estimated reciprocal-space cutoff momentum G_max:         2.83011916 bohr^-1 .
  | Reciprocal lattice points for long-range Hartree potential:     436
  Partitioning the integration grid into batches with parallel hashing+maxmin method.
  | Number of batches:     1024
  | Maximal batch size:      99
  | Minimal batch size:      94
  | Average batch size:      96.992
  | Standard deviation of batch sizes:       1.418

  Integration load balanced across     2 MPI tasks.
  Work distribution over tasks is as follows:
  Task     0 has      49611 integration points.
  Task     1 has      49709 integration points.
  Initializing partition tables, free-atom densities, potentials, etc. across the integration grid (initialize_grid_storage).
  | initialize_grid_storage: Actual outermost partition radius vs. multipole_radius_free
  | (-- VB: in principle, multipole_radius_free should be larger, hence this output)
  | Species        1: Confinement radius =              4.999999999999999 AA, multipole_radius_free =              5.022921912105459 AA.
  | Species        1: outer_partition_radius set to              5.022921912105459 AA .
  | Species        2: Confinement radius =              4.999999999999999 AA, multipole_radius_free =              5.005414751018925 AA.
  | Species        2: outer_partition_radius set to              5.005414751018925 AA .
  | The sparse table of interatomic distances needs       1255.37 kbyte instead of      2765.95 kbyte of memory.
  | Net number of integration points:    99320
  | of which are non-zero points    :    85864
  | Numerical average free-atom electrostatic potential    :    -20.38686710 eV
  Renormalizing the initial density to the exact electron count on the 3D integration grid.
  | Initial density: Formal number of electrons (from input files) :     232.0000000000
  | Integrated number of electrons on 3D grid     :     232.0021162465
  | Charge integration error                      :       0.0021162465
  | Normalization factor for density and gradient :       0.9999908783
  Renormalizing the free-atom superposition density to the exact electron count on the 3D integration grid.
  | Formal number of electrons (from input files) :     232.0000000000
  | Integrated number of electrons on 3D grid     :     232.0021162465
  | Charge integration error                      :       0.0021162465
  | Normalization factor for density and gradient :       0.9999908783
  Obtaining max. number of non-zero basis functions in each batch (get_n_compute_maxes).
  | Maximal number of non-zero basis functions:     1133 in task     0
  | Maximal number of non-zero basis functions:     1133 in task     1
  Allocating       49.834 MB for KS_eigenvector_complex
  Integrating Hamiltonian matrix: batch-based integration.
  Time summed over all CPUs for integration: real work       25.213 s, elapsed       25.224 s
  Integrating overlap matrix.
  Time summed over all CPUs for integration: real work       17.489 s, elapsed       17.563 s
  Decreasing sparse matrix size:
  | Tolerance:  0.1000E-12
  Hamiltonian matrix
  | Array has   901288 nonzero elements out of  1051377 elements
  | Sparsity factor is 0.143
  Overlap matrix
  | Array has   827872 nonzero elements out of  1051377 elements
  | Sparsity factor is 0.213
  New size of hamiltonian matrix:      903101

  Updating Kohn-Sham eigenvalues and eigenvectors using ELSI and the (modified) LAPACK eigensolver.
  Singularity check in k-point 2, task 0 (analysis for other k-points/tasks may follow below):
  Overlap matrix is not singular
  | Lowest and highest eigenvalues :  0.6080E-03,  0.8559E+01
  Finished singularity check of overlap matrix
  | Time :     0.083 s
  Starting LAPACK eigensolver
  Finished Cholesky decomposition
  | Time :     0.010 s
  Finished transformation to standard eigenproblem
  | Time :     0.023 s
  Finished solving standard eigenproblem
  | Time :     0.080 s
  Finished back-transformation of eigenvectors
  | Time :     0.006 s

  Obtaining occupation numbers and chemical potential using ELSI.
  | Chemical potential (Fermi level):    -6.49105781 eV
  Writing Kohn-Sham eigenvalues.
  K-point:       1 at    0.000000    0.000000    0.000000 (in units of recip. lattice)

  State    Occupation    Eigenvalue [Ha]    Eigenvalue [eV]
      1       2.00000        -259.364806        -7057.67547
      2       2.00000        -259.364806        -7057.67547
      3       2.00000        -259.364806        -7057.67547
      4       2.00000        -259.364806        -7057.67547
      5       2.00000         -88.707145        -2413.84422
      6       2.00000         -88.707145        -2413.84422
      7       2.00000         -88.707145        -2413.84422
      8       2.00000         -88.707145        -2413.84422
      9       2.00000         -88.707145        -2413.84422
     10       2.00000         -88.707145        -2413.84422
     11       2.00000         -88.707145        -2413.84422
     12       2.00000         -88.707145        -2413.84422
     13       2.00000         -30.169939         -820.96581
     14       2.00000         -30.169939         -820.96581
     15       2.00000         -30.169939         -820.96581
     16       2.00000         -30.169939         -820.96581
     17       2.00000         -25.704098         -699.44409
     18       2.00000         -25.704098         -699.44409
     19       2.00000         -25.704098         -699.44409
     20       2.00000         -25.704098         -699.44409
     21       2.00000         -25.704098         -699.44409
     22       2.00000         -25.704098         -699.44409
     23       2.00000         -25.704098         -699.44409
     24       2.00000         -25.704098         -699.44409
     25       2.00000         -25.704018         -699.44191
     26       2.00000         -25.704018         -699.44191
     27       2.00000         -25.704018         -699.44191
     28       2.00000         -25.704018         -699.44191
     29       2.00000          -7.812231         -212.58161
     30       2.00000          -7.812231         -212.58161
     31       2.00000          -7.812231         -212.58161
     32       2.00000          -7.812231         -212.58161
     33       2.00000          -7.812208         -212.58099
     34       2.00000          -7.812208         -212.58099
     35       2.00000          -7.812208         -212.58099
     36       2.00000          -7.812208         -212.58099
     37       2.00000          -5.782257         -157.34321
     38       2.00000          -5.782257         -157.34321
     39       2.00000          -5.782257         -157.34321
     40       2.00000          -5.782257         -157.34321
     41       2.00000          -5.782257         -157.34321
     42       2.00000          -5.782257         -157.34321
     43       2.00000          -5.782257         -157.34321
     44       2.00000          -5.782257         -157.34321
     45       2.00000          -5.782246         -157.34292
     46       2.00000          -5.782246         -157.34292
     47       2.00000          -5.782246         -157.34292
     48       2.00000          -5.782246         -157.34291
     49       2.00000          -5.782246         -157.34291
     50       2.00000          -5.782246         -157.34291
     51       2.00000          -5.782246         -157.34291
     52       2.00000          -5.782246         -157.34291
     53       2.00000          -5.781769         -157.32993
     54       2.00000          -5.781769         -157.32993
     55       2.00000          -5.781769         -157.32993
     56       2.00000          -5.781768         -157.32992
     57       2.00000          -5.781612         -157.32568
     58       2.00000          -5.781612         -157.32567
     59       2.00000          -5.781612         -157.32567
     60       2.00000          -5.781612         -157.32567
     61       2.00000          -3.473970          -94.53154
     62       2.00000          -3.473963          -94.53135
     63       2.00000          -3.473963          -94.53135
     64       2.00000          -3.473963          -94.53135
     65       2.00000          -2.228127          -60.63042
     66       2.00000          -2.228127          -60.63042
     67       2.00000          -2.228127          -60.63042
     68       2.00000          -2.228061          -60.62863
     69       2.00000          -2.228061          -60.62863
     70       2.00000          -2.228036          -60.62795
     71       2.00000          -2.228036          -60.62795
     72       2.00000          -2.228036          -60.62795
     73       2.00000          -2.226542          -60.58729
     74       2.00000          -2.226523          -60.58678
     75       2.00000          -2.226523          -60.58678
     76       2.00000          -2.226523          -60.58678
     77       2.00000          -0.861010          -23.42927
     78       2.00000          -0.780943          -21.25053
     79       2.00000          -0.780943          -21.25053
     80       2.00000          -0.780943          -21.25053
     81       2.00000          -0.692957          -18.85633
     82       2.00000          -0.692957          -18.85633
     83       2.00000          -0.692957          -18.85633
     84       2.00000          -0.640316          -17.42388
     85       2.00000          -0.487801          -13.27374
     86       2.00000          -0.487801          -13.27374
     87       2.00000          -0.487801          -13.27374
     88       2.00000          -0.460086          -12.51959
     89       2.00000          -0.460086          -12.51959
     90       2.00000          -0.460086          -12.51959
     91       2.00000          -0.435693          -11.85581
     92       2.00000          -0.435693          -11.85581
     93       2.00000          -0.435693          -11.85581
     94       2.00000          -0.429331          -11.68268
     95       2.00000          -0.429331          -11.68268
     96       2.00000          -0.409623          -11.14640
     97       2.00000          -0.404982          -11.02013
     98       2.00000          -0.404982          -11.02013
     99       2.00000          -0.404982          -11.02013
    100       2.00000          -0.400426          -10.89614
    101       2.00000          -0.400426          -10.89614
    102       2.00000          -0.338520           -9.21160
    103       2.00000          -0.338520           -9.21160
    104       2.00000          -0.338520           -9.21160
    105       2.00000          -0.330918           -9.00473
    106       2.00000          -0.330918           -9.00473
    107       2.00000          -0.330918           -9.00473
    108       2.00000          -0.313164           -8.52164
    109       2.00000          -0.313164           -8.52164
    110       2.00000          -0.309613           -8.42500
    111       2.00000          -0.309613           -8.42500
    112       2.00000          -0.309613           -8.42500
    113       2.00000          -0.305170           -8.30409
    114       2.00000          -0.305170           -8.30409
    115       2.00000          -0.305170           -8.30409
    116       2.00000          -0.303399           -8.25591
    117       0.00000          -0.231038           -6.28688
    118       0.00000          -0.231038           -6.28688
    119       0.00000          -0.231038           -6.28688
    120       0.00000          -0.205622           -5.59525
    121       0.00000          -0.153002           -4.16339
    122       0.00000          -0.153002           -4.16339
    123       0.00000          -0.153002           -4.16339
    124       0.00000          -0.124049           -3.37554
    125       0.00000          -0.124049           -3.37554
    126       0.00000          -0.111725           -3.04018
    127       0.00000          -0.111725           -3.04018
    128       0.00000          -0.111725           -3.04018
    129       0.00000           0.016749            0.45576
    130       0.00000           0.016749            0.45576
    131       0.00000           0.016749            0.45576
    132       0.00000           0.049396            1.34414
    133       0.00000           0.082166            2.23584
    134       0.00000           0.082166            2.23584
    135       0.00000           0.082166            2.23584
    136       0.00000           0.084019            2.28627
    137       0.00000           0.084019            2.28627
    138       0.00000           0.084019            2.28627
    139       0.00000           0.088662            2.41261
    140       0.00000           0.088662            2.41261
    141       0.00000           0.096894            2.63662
    142       0.00000           0.096894            2.63662
    143       0.00000           0.096894            2.63662
    144       0.00000           0.160994            4.38087
    145       0.00000           0.160994            4.38087
    146       0.00000           0.160994            4.38087
    147       0.00000           0.174350            4.74430
    148       0.00000           0.190320            5.17887
    149       0.00000           0.190320            5.17887
    150       0.00000           0.190320            5.17887
    151       0.00000           0.242803            6.60701
    152       0.00000           0.242803            6.60701
    153       0.00000           0.262188            7.13450
    154       0.00000           0.262188            7.13450
    155       0.00000           0.263634            7.17384
    156       0.00000           0.263634            7.17384
    157       0.00000           0.263634            7.17384
    158       0.00000           0.280607            7.63571
    159       0.00000           0.331909            9.03170
    160       0.00000           0.331909            9.03170
    161       0.00000           0.331909            9.03170
    162       0.00000           0.377602           10.27507

  What follows are estimated values for band gap, HOMO, LUMO, etc.
  | They are estimated on a discrete k-point grid and not necessarily exact.
  | For converged numbers, create a DOS and/or band structure plot on a denser k-grid.

  Highest occupied state (VBM) at     -7.83589015 eV (relative to internal zero)
  | Occupation number:      2.00000000
  | K-point:      77 at    0.500000    0.000000    0.333333 (in units of recip. lattice)

  Lowest unoccupied state (CBM) at    -6.44933037 eV (relative to internal zero)
  | Occupation number:      0.00000000
  | K-point:      90 at    0.500000    0.500000    0.500000 (in units of recip. lattice)

  ESTIMATED overall HOMO-LUMO gap:      1.38655979 eV between HOMO at k-point 77 and LUMO at k-point 90
  | This appears to be an indirect band gap.
  | Smallest direct gap :      1.63862637 eV for k_point 56 at    0.333333    0.166667    0.666667 (in units of recip. lattice)
  The gap value is above 0.2 eV. Unless you are using a very sparse k-point grid,
  this system is most likely an insulator or a semiconductor.
  Calculating total energy contributions from superposition of free atom densities.

  Total energy components:
  | Sum of eigenvalues            :       -4872.26643675 Ha     -132581.11539682 eV
  | XC energy correction          :        -429.61729834 Ha      -11690.48149304 eV
  | XC potential correction       :         556.57642870 Ha       15145.21520495 eV
  | Free-atom electrostatic energy:       -3564.08596507 Ha      -96983.71358658 eV
  | Hartree energy correction     :          -0.00000000 Ha          -0.00000000 eV
  | Entropy correction            :          -0.00000000 Ha          -0.00000000 eV
  | ---------------------------
  | Total energy                  :       -8309.39327146 Ha     -226110.09527149 eV
  | Total energy, T -> 0          :       -8309.39327146 Ha     -226110.09527149 eV  <-- do not rely on this value for anything but (periodic) metals
  | Electronic free energy        :       -8309.39327146 Ha     -226110.09527149 eV

  Derived energy quantities:
  | Kinetic energy                :        8384.58462008 Ha      228156.15596987 eV
  | Electrostatic energy          :      -16264.36059320 Ha     -442575.76974831 eV
  | Energy correction for multipole
  | error in Hartree potential    :           0.00000000 Ha           0.00000000 eV
  | Sum of eigenvalues per atom                           :      -11048.42628307 eV
  | Total energy (T->0) per atom                          :      -18842.50793929 eV  <-- do not rely on this value for anything but (periodic) metals
  | Electronic free energy per atom                       :      -18842.50793929 eV
  Initialize hartree_potential_storage
  Max. number of atoms included in rho_multipole:           12

  End scf initialization - timings             :  max(cpu_time)    wall_clock(cpu1)
  | Time for scf. initialization               :       29.797 s          37.066 s
  | Boundary condition initialization          :        0.344 s           0.365 s
  | Integration                                :       17.344 s          21.544 s
  | Solution of K.-S. eqns.                    :        6.875 s           8.371 s
  | Grid partitioning                          :        0.797 s           0.832 s
  | Preloading free-atom quantities on grid    :        4.172 s           5.415 s
  | Free-atom superposition energy             :        0.453 s           0.477 s
  | Total energy evaluation                    :        0.000 s           0.002 s

  Partial memory accounting:
  | Current value for overall tracked memory usage:
  |   Minimum:       67.060 MB (on task 0)
  |   Maximum:       67.060 MB (on task 0)
  |   Average:       67.060 MB
  | Peak value for overall tracked memory usage:
  |   Minimum:       82.275 MB (on task 0 after allocating wave)
  |   Maximum:       82.275 MB (on task 0 after allocating wave)
  |   Average:       82.275 MB
  | Largest tracked array allocation so far:
  |   Minimum:       49.834 MB (KS_eigenvector_complex on task 0)
  |   Maximum:       49.834 MB (KS_eigenvector_complex on task 0)
  |   Average:       49.834 MB
  Note:  These values currently only include a subset of arrays which are explicitly tracked.
  The "true" memory usage will be greater.
------------------------------------------------------------

------------------------------------------------------------
          Begin self-consistency iteration #    1

  Date     :  20201119, Time     :  195047.796
------------------------------------------------------------
  Evaluating new KS density using the density matrix
  Evaluating density matrix
  Time summed over all CPUs for getting density from density matrix: real work       38.707 s, elapsed       38.777 s
  Integration grid: deviation in total charge (<rho> - N_e) =   6.735945E-11
  Pulay mixing of updated and previous charge densities.
  Renormalizing the density to the exact electron count on the 3D integration grid.
  | Formal number of electrons (from input files) :     232.0000000000
  | Integrated number of electrons on 3D grid     :     231.9994314802
  | Charge integration error                      :      -0.0005685198
  | Normalization factor for density and gradient :       1.0000024505

  Evaluating partitioned Hartree potential by multipole expansion.
  | Original multipole sum: apparent total charge =   0.812782E-11
  | Sum of charges compensated after spline to logarithmic grids =   0.127494E-05
  | Analytical far-field extrapolation by fixed multipoles:
  | Hartree multipole sum: apparent total charge =   0.812756E-11
  Summing up the Hartree potential.
  Time summed over all CPUs for potential: real work        6.307 s, elapsed        6.334 s
  | RMS charge density error from multipole expansion :   0.133263E-02
  | Average real-space part of the electrostatic potential :      0.02369567 eV

  Integrating Hamiltonian matrix: batch-based integration.
  Time summed over all CPUs for integration: real work       14.973 s, elapsed       15.001 s

  Updating Kohn-Sham eigenvalues and eigenvectors using ELSI and the (modified) LAPACK eigensolver.
  Starting LAPACK eigensolver
  Finished Cholesky decomposition
  | Time :     0.014 s
  Finished transformation to standard eigenproblem
  | Time :     0.028 s
  Finished solving standard eigenproblem
  | Time :     0.062 s
  Finished back-transformation of eigenvectors
  | Time :     0.007 s

  Obtaining occupation numbers and chemical potential using ELSI.
  | Chemical potential (Fermi level):    -6.13091235 eV
  Writing Kohn-Sham eigenvalues.
  K-point:       1 at    0.000000    0.000000    0.000000 (in units of recip. lattice)

  State    Occupation    Eigenvalue [Ha]    Eigenvalue [eV]
      1       2.00000        -259.335872        -7056.88814
      2       2.00000        -259.335872        -7056.88814
      3       2.00000        -259.335872        -7056.88814
      4       2.00000        -259.335872        -7056.88814
      5       2.00000         -88.713335        -2414.01266
      6       2.00000         -88.713335        -2414.01266
      7       2.00000         -88.713335        -2414.01266
      8       2.00000         -88.713335        -2414.01266
      9       2.00000         -88.713335        -2414.01266
     10       2.00000         -88.713335        -2414.01266
     11       2.00000         -88.713335        -2414.01266
     12       2.00000         -88.713335        -2414.01266
     13       2.00000         -30.142176         -820.21035
     14       2.00000         -30.142176         -820.21035
     15       2.00000         -30.142176         -820.21035
     16       2.00000         -30.142176         -820.21035
     17       2.00000         -25.676176         -698.68429
     18       2.00000         -25.676176         -698.68429
     19       2.00000         -25.676176         -698.68429
     20       2.00000         -25.676176         -698.68429
     21       2.00000         -25.676176         -698.68429
     22       2.00000         -25.676176         -698.68429
     23       2.00000         -25.676176         -698.68429
     24       2.00000         -25.676176         -698.68429
     25       2.00000         -25.675816         -698.67451
     26       2.00000         -25.675816         -698.67451
     27       2.00000         -25.675816         -698.67451
     28       2.00000         -25.675816         -698.67451
     29       2.00000          -7.817153         -212.71555
     30       2.00000          -7.817153         -212.71555
     31       2.00000          -7.817153         -212.71555
     32       2.00000          -7.817153         -212.71555
     33       2.00000          -7.817130         -212.71493
     34       2.00000          -7.817130         -212.71492
     35       2.00000          -7.817130         -212.71492
     36       2.00000          -7.817130         -212.71492
     37       2.00000          -5.787163         -157.47671
     38       2.00000          -5.787163         -157.47671
     39       2.00000          -5.787163         -157.47671
     40       2.00000          -5.787163         -157.47671
     41       2.00000          -5.787163         -157.47671
     42       2.00000          -5.787162         -157.47670
     43       2.00000          -5.787162         -157.47670
     44       2.00000          -5.787162         -157.47670
     45       2.00000          -5.787152         -157.47642
     46       2.00000          -5.787152         -157.47642
     47       2.00000          -5.787152         -157.47642
     48       2.00000          -5.787152         -157.47641
     49       2.00000          -5.787152         -157.47641
     50       2.00000          -5.787152         -157.47641
     51       2.00000          -5.787152         -157.47641
     52       2.00000          -5.787152         -157.47641
     53       2.00000          -5.787045         -157.47350
     54       2.00000          -5.787045         -157.47350
     55       2.00000          -5.787045         -157.47350
     56       2.00000          -5.787045         -157.47350
     57       2.00000          -5.786889         -157.46926
     58       2.00000          -5.786889         -157.46925
     59       2.00000          -5.786889         -157.46925
     60       2.00000          -5.786889         -157.46925
     61       2.00000          -3.454584          -94.00402
     62       2.00000          -3.454578          -94.00386
     63       2.00000          -3.454578          -94.00386
     64       2.00000          -3.454578          -94.00386
     65       2.00000          -2.209635          -60.12722
     66       2.00000          -2.209635          -60.12722
     67       2.00000          -2.209635          -60.12722
     68       2.00000          -2.209567          -60.12536
     69       2.00000          -2.209567          -60.12536
     70       2.00000          -2.209539          -60.12462
     71       2.00000          -2.209539          -60.12462
     72       2.00000          -2.209539          -60.12462
     73       2.00000          -2.207596          -60.07175
     74       2.00000          -2.207578          -60.07125
     75       2.00000          -2.207578          -60.07125
     76       2.00000          -2.207578          -60.07125
     77       2.00000          -0.862800          -23.47799
     78       2.00000          -0.783256          -21.31349
     79       2.00000          -0.783256          -21.31349
     80       2.00000          -0.783256          -21.31349
     81       2.00000          -0.694372          -18.89483
     82       2.00000          -0.694372          -18.89483
     83       2.00000          -0.694372          -18.89483
     84       2.00000          -0.641929          -17.46778
     85       2.00000          -0.486813          -13.24685
     86       2.00000          -0.486813          -13.24685
     87       2.00000          -0.486813          -13.24685
     88       2.00000          -0.460972          -12.54369
     89       2.00000          -0.460972          -12.54369
     90       2.00000          -0.460972          -12.54369
     91       2.00000          -0.433764          -11.80331
     92       2.00000          -0.433764          -11.80331
     93       2.00000          -0.433764          -11.80331
     94       2.00000          -0.430120          -11.70416
     95       2.00000          -0.430120          -11.70416
     96       2.00000          -0.412185          -11.21612
     97       2.00000          -0.399577          -10.87305
     98       2.00000          -0.399577          -10.87305
     99       2.00000          -0.399577          -10.87305
    100       2.00000          -0.392375          -10.67707
    101       2.00000          -0.392375          -10.67707
    102       2.00000          -0.339748           -9.24500
    103       2.00000          -0.339748           -9.24500
    104       2.00000          -0.339748           -9.24500
    105       2.00000          -0.317691           -8.64481
    106       2.00000          -0.317691           -8.64481
    107       2.00000          -0.317691           -8.64481
    108       2.00000          -0.298314           -8.11752
    109       2.00000          -0.298314           -8.11752
    110       2.00000          -0.294572           -8.01572
    111       2.00000          -0.294572           -8.01572
    112       2.00000          -0.294572           -8.01572
    113       2.00000          -0.291216           -7.92438
    114       2.00000          -0.291216           -7.92438
    115       2.00000          -0.291216           -7.92438
    116       2.00000          -0.288068           -7.83872
    117       0.00000          -0.217858           -5.92822
    118       0.00000          -0.217858           -5.92822
    119       0.00000          -0.217858           -5.92822
    120       0.00000          -0.207871           -5.65646
    121       0.00000          -0.144330           -3.92742
    122       0.00000          -0.144330           -3.92742
    123       0.00000          -0.144330           -3.92742
    124       0.00000          -0.117332           -3.19276
    125       0.00000          -0.117332           -3.19276
    126       0.00000          -0.114338           -3.11130
    127       0.00000          -0.114338           -3.11130
    128       0.00000          -0.114338           -3.11130
    129       0.00000           0.016583            0.45126
    130       0.00000           0.016583            0.45126
    131       0.00000           0.016583            0.45126
    132       0.00000           0.050688            1.37928
    133       0.00000           0.083234            2.26493
    134       0.00000           0.083234            2.26493
    135       0.00000           0.083234            2.26493
    136       0.00000           0.084073            2.28774
    137       0.00000           0.084073            2.28774
    138       0.00000           0.084073            2.28774
    139       0.00000           0.087270            2.37474
    140       0.00000           0.087270            2.37474
    141       0.00000           0.099199            2.69933
    142       0.00000           0.099199            2.69933
    143       0.00000           0.099199            2.69933
    144       0.00000           0.160002            4.35387
    145       0.00000           0.160002            4.35387
    146       0.00000           0.160002            4.35387
    147       0.00000           0.174558            4.74996
    148       0.00000           0.190863            5.19365
    149       0.00000           0.190863            5.19365
    150       0.00000           0.190863            5.19365
    151       0.00000           0.242978            6.61176
    152       0.00000           0.242978            6.61176
    153       0.00000           0.262549            7.14433
    154       0.00000           0.262549            7.14433
    155       0.00000           0.262549            7.14433
    156       0.00000           0.262878            7.15329
    157       0.00000           0.262878            7.15329
    158       0.00000           0.279508            7.60581
    159       0.00000           0.331540            9.02167
    160       0.00000           0.331540            9.02167
    161       0.00000           0.331540            9.02167
    162       0.00000           0.378275           10.29340

  What follows are estimated values for band gap, HOMO, LUMO, etc.
  | They are estimated on a discrete k-point grid and not necessarily exact.
  | For converged numbers, create a DOS and/or band structure plot on a denser k-grid.

  Highest occupied state (VBM) at     -7.61372425 eV (relative to internal zero)
  | Occupation number:      2.00000000
  | K-point:      83 at    0.500000    0.333333    0.000000 (in units of recip. lattice)

  Lowest unoccupied state (CBM) at    -6.08918525 eV (relative to internal zero)
  | Occupation number:      0.00000000
  | K-point:      90 at    0.500000    0.500000    0.500000 (in units of recip. lattice)

  ESTIMATED overall HOMO-LUMO gap:      1.52453900 eV between HOMO at k-point 83 and LUMO at k-point 90
  | This appears to be an indirect band gap.
  | Smallest direct gap :      1.63911293 eV for k_point 10 at    0.000000    0.333333    0.166667 (in units of recip. lattice)
  The gap value is above 0.2 eV. Unless you are using a very sparse k-point grid,
  this system is most likely an insulator or a semiconductor.

  Total energy components:
  | Sum of eigenvalues            :       -4870.58886399 Ha     -132535.46631937 eV
  | XC energy correction          :        -429.69395596 Ha      -11692.56745304 eV
  | XC potential correction       :         556.67700930 Ha       15147.95214229 eV
  | Free-atom electrostatic energy:       -3564.08596507 Ha      -96983.71358658 eV
  | Hartree energy correction     :          -1.63757761 Ha         -44.56075400 eV
  | Entropy correction            :          -0.00000000 Ha          -0.00000000 eV
  | ---------------------------
  | Total energy                  :       -8309.32935333 Ha     -226108.35597070 eV
  | Total energy, T -> 0          :       -8309.32935333 Ha     -226108.35597070 eV  <-- do not rely on this value for anything but (periodic) metals
  | Electronic free energy        :       -8309.32935333 Ha     -226108.35597070 eV

  Derived energy quantities:
  | Kinetic energy                :        8385.22816044 Ha      228173.66759391 eV
  | Electrostatic energy          :      -16264.86355781 Ha     -442589.45611157 eV
  | Energy correction for multipole
  | error in Hartree potential    :           0.00137231 Ha           0.03734248 eV
  | Sum of eigenvalues per atom                           :      -11044.62219328 eV
  | Total energy (T->0) per atom                          :      -18842.36299756 eV  <-- do not rely on this value for anything but (periodic) metals
  | Electronic free energy per atom                       :      -18842.36299756 eV

  Self-consistency convergence accuracy:
  | Change of charge density      :  0.8572E+00
  | Change of sum of eigenvalues  :  0.4565E+02 eV
  | Change of total energy        :  0.1739E+01 eV

  End self-consistency iteration #     1       :  max(cpu_time)    wall_clock(cpu1)
  | Time for this iteration                    :       35.375 s          37.417 s
  | Charge density update                      :       18.266 s          19.967 s
  | Density mixing & preconditioning           :        2.609 s           2.644 s
  | Hartree multipole update                   :        0.016 s           0.021 s
  | Hartree multipole summation                :        3.172 s           3.217 s
  | Integration                                :        7.422 s           7.527 s
  | Solution of K.-S. eqns.                    :        3.953 s           4.028 s
  | Total energy evaluation                    :        0.000 s           0.001 s

  Partial memory accounting:
  | Current value for overall tracked memory usage:
  |   Minimum:       67.060 MB (on task 0)
  |   Maximum:       67.060 MB (on task 0)
  |   Average:       67.060 MB
  | Peak value for overall tracked memory usage:
  |   Minimum:       88.878 MB (on task 0 after allocating gradient_basis_wave)
  |   Maximum:       88.878 MB (on task 0 after allocating gradient_basis_wave)
  |   Average:       88.878 MB
  | Largest tracked array allocation so far:
  |   Minimum:       49.834 MB (KS_eigenvector_complex on task 0)
  |   Maximum:       49.834 MB (KS_eigenvector_complex on task 0)
  |   Average:       49.834 MB
  Note:  These values currently only include a subset of arrays which are explicitly tracked.
  The "true" memory usage will be greater.
------------------------------------------------------------

------------------------------------------------------------
          Begin self-consistency iteration #    2

  Date     :  20201119, Time     :  195125.219
------------------------------------------------------------
  Evaluating new KS density using the density matrix
  Evaluating density matrix
  Time summed over all CPUs for getting density from density matrix: real work       32.748 s, elapsed       32.834 s
  Integration grid: deviation in total charge (<rho> - N_e) =   6.687628E-11
  Pulay mixing of updated and previous charge densities.
  Renormalizing the density to the exact electron count on the 3D integration grid.
  | Formal number of electrons (from input files) :     232.0000000000
  | Integrated number of electrons on 3D grid     :     231.9984964342
  | Charge integration error                      :      -0.0015035658
  | Normalization factor for density and gradient :       1.0000064809

  Evaluating partitioned Hartree potential by multipole expansion.
  | Original multipole sum: apparent total charge =   0.430470E-11
  | Sum of charges compensated after spline to logarithmic grids =   0.384163E-05
  | Analytical far-field extrapolation by fixed multipoles:
  | Hartree multipole sum: apparent total charge =   0.430463E-11
  Summing up the Hartree potential.
  Time summed over all CPUs for potential: real work        6.718 s, elapsed        6.737 s
  | RMS charge density error from multipole expansion :   0.506633E-02
  | Average real-space part of the electrostatic potential :      0.07504168 eV

  Integrating Hamiltonian matrix: batch-based integration.
  Time summed over all CPUs for integration: real work       15.366 s, elapsed       15.394 s

  Updating Kohn-Sham eigenvalues and eigenvectors using ELSI and the (modified) LAPACK eigensolver.
  Starting LAPACK eigensolver
  Finished Cholesky decomposition
  | Time :     0.014 s
  Finished transformation to standard eigenproblem
  | Time :     0.021 s
  Finished solving standard eigenproblem
  | Time :     0.063 s
  Finished back-transformation of eigenvectors
  | Time :     0.007 s

  Obtaining occupation numbers and chemical potential using ELSI.
  | Chemical potential (Fermi level):    -5.83071935 eV
  What follows are estimated values for band gap, HOMO, LUMO, etc.
  | They are estimated on a discrete k-point grid and not necessarily exact.
  | For converged numbers, create a DOS and/or band structure plot on a denser k-grid.

  Highest occupied state (VBM) at     -6.90098517 eV (relative to internal zero)
  | Occupation number:      2.00000000
  | K-point:      14 at    0.000000    0.500000    0.000000 (in units of recip. lattice)

  Lowest unoccupied state (CBM) at    -5.79064119 eV (relative to internal zero)
  | Occupation number:      0.00000001
  | K-point:       1 at    0.000000    0.000000    0.000000 (in units of recip. lattice)

  ESTIMATED overall HOMO-LUMO gap:      1.11034398 eV between HOMO at k-point 14 and LUMO at k-point 1
  | This appears to be an indirect band gap.
  | Smallest direct gap :      1.20920172 eV for k_point 1 at    0.000000    0.000000    0.000000 (in units of recip. lattice)
  The gap value is above 0.2 eV. Unless you are using a very sparse k-point grid,
  this system is most likely an insulator or a semiconductor.

  Total energy components:
  | Sum of eigenvalues            :       -4867.45986014 Ha     -132450.32179256 eV
  | XC energy correction          :        -429.83275959 Ha      -11696.34449199 eV
  | XC potential correction       :         556.85906753 Ha       15152.90619879 eV
  | Free-atom electrostatic energy:       -3564.08596507 Ha      -96983.71358658 eV
  | Hartree energy correction     :          -4.74418471 Ha        -129.09583436 eV
  | Entropy correction            :          -0.00000000 Ha          -0.00000000 eV
  | ---------------------------
  | Total energy                  :       -8309.26370199 Ha     -226106.56950671 eV
  | Total energy, T -> 0          :       -8309.26370199 Ha     -226106.56950671 eV  <-- do not rely on this value for anything but (periodic) metals
  | Electronic free energy        :       -8309.26370199 Ha     -226106.56950671 eV

  Derived energy quantities:
  | Kinetic energy                :        8386.14614756 Ha      228198.64729433 eV
  | Electrostatic energy          :      -16265.57708995 Ha     -442608.87230905 eV
  | Energy correction for multipole
  | error in Hartree potential    :           0.00508711 Ha           0.13842741 eV
  | Sum of eigenvalues per atom                           :      -11037.52681605 eV
  | Total energy (T->0) per atom                          :      -18842.21412556 eV  <-- do not rely on this value for anything but (periodic) metals
  | Electronic free energy per atom                       :      -18842.21412556 eV

  Self-consistency convergence accuracy:
  | Change of charge density      :  0.7283E+00
  | Change of sum of eigenvalues  :  0.8514E+02 eV
  | Change of total energy        :  0.1786E+01 eV

  End self-consistency iteration #     2       :  max(cpu_time)    wall_clock(cpu1)
  | Time for this iteration                    :       34.219 s          34.673 s
  | Charge density update                      :       16.719 s          16.938 s
  | Density mixing & preconditioning           :        2.578 s           2.584 s
  | Hartree multipole update                   :        0.016 s           0.007 s
  | Hartree multipole summation                :        3.359 s           3.410 s
  | Integration                                :        7.594 s           7.713 s
  | Solution of K.-S. eqns.                    :        3.953 s           4.018 s
  | Total energy evaluation                    :        0.000 s           0.001 s

  Partial memory accounting:
  | Current value for overall tracked memory usage:
  |   Minimum:       67.060 MB (on task 0)
  |   Maximum:       67.060 MB (on task 0)
  |   Average:       67.060 MB
  | Peak value for overall tracked memory usage:
  |   Minimum:       88.878 MB (on task 0 after allocating gradient_basis_wave)
  |   Maximum:       88.878 MB (on task 0 after allocating gradient_basis_wave)
  |   Average:       88.878 MB
  | Largest tracked array allocation so far:
[...]
     45       2.00000          -5.804712         -157.95424
     46       2.00000          -5.804712         -157.95424
     47       2.00000          -5.804712         -157.95424
     48       2.00000          -5.804712         -157.95424
     49       2.00000          -5.804712         -157.95424
     50       2.00000          -5.804711         -157.95423
     51       2.00000          -5.804711         -157.95423
     52       2.00000          -5.804711         -157.95423
     53       2.00000          -5.804701         -157.95395
     54       2.00000          -5.804701         -157.95395
     55       2.00000          -5.804701         -157.95395
     56       2.00000          -5.804701         -157.95394
     57       2.00000          -5.804701         -157.95394
     58       2.00000          -5.804701         -157.95394
     59       2.00000          -5.804701         -157.95394
     60       2.00000          -5.804701         -157.95394
     61       2.00000          -3.413976          -92.89902
     62       2.00000          -3.413968          -92.89879
     63       2.00000          -3.413968          -92.89879
     64       2.00000          -3.413968          -92.89879
     65       2.00000          -2.170933          -59.07409
     66       2.00000          -2.170933          -59.07409
     67       2.00000          -2.170933          -59.07409
     68       2.00000          -2.170858          -59.07206
     69       2.00000          -2.170858          -59.07206
     70       2.00000          -2.170832          -59.07134
     71       2.00000          -2.170832          -59.07134
     72       2.00000          -2.170832          -59.07134
     73       2.00000          -2.161872          -58.82753
     74       2.00000          -2.161851          -58.82696
     75       2.00000          -2.161851          -58.82696
     76       2.00000          -2.161851          -58.82696
     77       2.00000          -0.869197          -23.65205
     78       2.00000          -0.792922          -21.57650
     79       2.00000          -0.792922          -21.57650
     80       2.00000          -0.792922          -21.57650
     81       2.00000          -0.697232          -18.97265
     82       2.00000          -0.697232          -18.97265
     83       2.00000          -0.697232          -18.97265
     84       2.00000          -0.644768          -17.54504
     85       2.00000          -0.488067          -13.28097
     86       2.00000          -0.488067          -13.28097
     87       2.00000          -0.488067          -13.28097
     88       2.00000          -0.461803          -12.56630
     89       2.00000          -0.461803          -12.56630
     90       2.00000          -0.461803          -12.56630
     91       2.00000          -0.430529          -11.71529
     92       2.00000          -0.430529          -11.71529
     93       2.00000          -0.426667          -11.61019
     94       2.00000          -0.425543          -11.57962
     95       2.00000          -0.425543          -11.57962
     96       2.00000          -0.425543          -11.57962
     97       2.00000          -0.383907          -10.44664
     98       2.00000          -0.383907          -10.44664
     99       2.00000          -0.383907          -10.44664
    100       2.00000          -0.370259          -10.07526
    101       2.00000          -0.370259          -10.07526
    102       2.00000          -0.341678           -9.29754
    103       2.00000          -0.341678           -9.29754
    104       2.00000          -0.341678           -9.29754
    105       2.00000          -0.283642           -7.71828
    106       2.00000          -0.283642           -7.71828
    107       2.00000          -0.283642           -7.71828
    108       2.00000          -0.262424           -7.14091
    109       2.00000          -0.262424           -7.14091
    110       2.00000          -0.257964           -7.01955
    111       2.00000          -0.257964           -7.01955
    112       2.00000          -0.257964           -7.01955
    113       2.00000          -0.256995           -6.99318
    114       2.00000          -0.256995           -6.99318
    115       2.00000          -0.256995           -6.99318
    116       2.00000          -0.247634           -6.73845
    117       0.00000          -0.219293           -5.96727
    118       0.00000          -0.187552           -5.10354
    119       0.00000          -0.187552           -5.10354
    120       0.00000          -0.187552           -5.10354
    121       0.00000          -0.125968           -3.42776
    122       0.00000          -0.125968           -3.42776
    123       0.00000          -0.125968           -3.42776
    124       0.00000          -0.122815           -3.34197
    125       0.00000          -0.122815           -3.34197
    126       0.00000          -0.122815           -3.34197
    127       0.00000          -0.100931           -2.74647
    128       0.00000          -0.100931           -2.74647
    129       0.00000           0.016643            0.45289
    130       0.00000           0.016643            0.45289
    131       0.00000           0.016643            0.45289
    132       0.00000           0.056447            1.53601
    133       0.00000           0.082113            2.23442
    134       0.00000           0.082113            2.23442
    135       0.00000           0.087391            2.37803
    136       0.00000           0.087391            2.37803
    137       0.00000           0.087391            2.37803
    138       0.00000           0.087991            2.39434
    139       0.00000           0.087991            2.39434
    140       0.00000           0.087991            2.39434
    141       0.00000           0.103897            2.82719
    142       0.00000           0.103897            2.82719
    143       0.00000           0.103897            2.82719
    144       0.00000           0.156312            4.25346
    145       0.00000           0.156312            4.25346
    146       0.00000           0.156312            4.25346
    147       0.00000           0.175165            4.76648
    148       0.00000           0.189373            5.15311
    149       0.00000           0.189373            5.15311
    150       0.00000           0.189373            5.15311
    151       0.00000           0.248650            6.76611
    152       0.00000           0.248650            6.76611
    153       0.00000           0.262525            7.14368
    154       0.00000           0.262525            7.14368
    155       0.00000           0.262684            7.14800
    156       0.00000           0.262684            7.14800
    157       0.00000           0.262684            7.14800
    158       0.00000           0.277129            7.54105
    159       0.00000           0.328328            8.93427
    160       0.00000           0.328328            8.93427
    161       0.00000           0.328328            8.93427
    162       0.00000           0.378588           10.30190

  What follows are estimated values for band gap, HOMO, LUMO, etc.
  | They are estimated on a discrete k-point grid and not necessarily exact.
  | For converged numbers, create a DOS and/or band structure plot on a denser k-grid.

  Highest occupied state (VBM) at     -6.70182351 eV (relative to internal zero)
  | Occupation number:      2.00000000
  | K-point:     111 at    0.833333    0.833333    0.166667 (in units of recip. lattice)

  Lowest unoccupied state (CBM) at    -5.96727263 eV (relative to internal zero)
  | Occupation number:      0.00000001
  | K-point:       1 at    0.000000    0.000000    0.000000 (in units of recip. lattice)

  ESTIMATED overall HOMO-LUMO gap:      0.73455088 eV between HOMO at k-point 111 and LUMO at k-point 1
  | This appears to be an indirect band gap.
  | Smallest direct gap :      0.77117959 eV for k_point 1 at    0.000000    0.000000    0.000000 (in units of recip. lattice)
  The gap value is above 0.2 eV. Unless you are using a very sparse k-point grid,
  this system is most likely an insulator or a semiconductor.

  Self-consistency cycle converged.

  End self-consistency iteration #    20       :  max(cpu_time)    wall_clock(cpu1)
  | Time for this iteration                    :       34.078 s          34.625 s
  | Charge density update                      :       16.625 s          16.945 s
  | Density mixing                             :        2.547 s           2.563 s
  | Hartree multipole update                   :        0.016 s           0.008 s
  | Hartree multipole summation                :        3.688 s           3.705 s
  | Integration                                :        7.453 s           7.555 s
  | Solution of K.-S. eqns.                    :        3.750 s           3.842 s
  | Total energy evaluation                    :        0.000 s           0.001 s

  Partial memory accounting:
  | Current value for overall tracked memory usage:
  |   Minimum:       67.061 MB (on task 0)
  |   Maximum:       67.061 MB (on task 0)
  |   Average:       67.061 MB
  | Peak value for overall tracked memory usage:
  |   Minimum:       88.879 MB (on task 0 after allocating gradient_basis_wave)
  |   Maximum:       88.879 MB (on task 0 after allocating gradient_basis_wave)
  |   Average:       88.879 MB
  | Largest tracked array allocation so far:
  |   Minimum:       49.834 MB (KS_eigenvector_complex on task 0)
  |   Maximum:       49.834 MB (KS_eigenvector_complex on task 0)
  |   Average:       49.834 MB
  Note:  These values currently only include a subset of arrays which are explicitly tracked.
  The "true" memory usage will be greater.
------------------------------------------------------------

  Energy and forces in a compact form:
  | Total energy uncorrected      :         -0.226105710498246E+06 eV
  | Total energy corrected        :         -0.226105710498246E+06 eV  <-- do not rely on this value for anything but (periodic) metals
  | Electronic free energy        :         -0.226105710498246E+06 eV

  ------------------------------------ 
  Start decomposition of the XC Energy 
  ------------------------------------ 
  X and C from original XC functional choice 
  Hartree-Fock Energy :          0.000000000 Ha              0.000000000 eV
  X Energy            :       -419.615287151 Ha         -11418.312920741 eV
  C Energy            :        -10.090638681 Ha           -274.580248999 eV
  Total XC Energy     :       -429.705925832 Ha         -11692.893169740 eV
  ------------------------------------ 
  LDA X and C from self-consistent density 
  X Energy LDA        :       -392.300309713 Ha         -10675.034567061 eV
  C Energy LDA        :        -18.961231880 Ha           -515.961371282 eV
  ------------------------------------ 
  End decomposition of the XC Energy 
  ------------------------------------ 

------------------------------------------------------------
 Output mulliken decomposition of band k points in LAPACK

  -------------------------------------------------------------------
  Writing the requested band Mulliken decomposition output (LAPACK version):
  -------------------------------------------------------------------

  Integrating Hamiltonian matrix: batch-based integration.
  Time summed over all CPUs for integration: real work       15.050 s, elapsed       15.079 s

  Treating all   31 k-points in band plot segment #   1:

  Overlap matrix is not singular
  | Lowest and highest eigenvalues :  0.6224E-03,  0.8603E+01
  Finished singularity check of overlap matrix
  | Time :     0.038 s
  Starting LAPACK eigensolver
  Finished Cholesky decomposition
  | Time :     0.008 s
  Finished transformation to standard eigenproblem
  | Time :     0.020 s
  Finished solving standard eigenproblem
  | Time :     0.053 s
  Finished back-transformation of eigenvectors
  | Time :     0.006 s
  Performing scalar-relativistic Mulliken charge analysis on all atoms.
 n_atoms, n_states, n_spin,n_k_points          12         162           1          31
  Allocating        2.299 MB for mulliken_decomp

  Treating all   31 k-points in band plot segment #   2:

  Performing scalar-relativistic Mulliken charge analysis on all atoms.
 n_atoms, n_states, n_spin,n_k_points          12         162           1          31
  Allocating        2.299 MB for mulliken_decomp

  Treating all   31 k-points in band plot segment #   3:

  Performing scalar-relativistic Mulliken charge analysis on all atoms.
 n_atoms, n_states, n_spin,n_k_points          12         162           1          31
  Allocating        2.299 MB for mulliken_decomp

  Treating all   31 k-points in band plot segment #   4:

  Performing scalar-relativistic Mulliken charge analysis on all atoms.
 n_atoms, n_states, n_spin,n_k_points          12         162           1          31
  Allocating        2.299 MB for mulliken_decomp

  Treating all   31 k-points in band plot segment #   5:

  Performing scalar-relativistic Mulliken charge analysis on all atoms.
 n_atoms, n_states, n_spin,n_k_points          12         162           1          31
  Allocating        2.299 MB for mulliken_decomp

  Treating all   31 k-points in band plot segment #   6:

  Performing scalar-relativistic Mulliken charge analysis on all atoms.
 n_atoms, n_states, n_spin,n_k_points          12         162           1          31
  Allocating        2.299 MB for mulliken_decomp

------------------------------------------------------------------------------
  Final output of selected total energy values:

  The following output summarizes some interesting total energy values
  at the end of a run (AFTER all relaxation, molecular dynamics, etc.).

  | Total energy of the DFT / Hartree-Fock s.c.f. calculation      :        -226105.710498246 eV
  | Final zero-broadening corrected energy (caution - metals only) :        -226105.710498246 eV
  | For reference only, the value of 1 Hartree used in FHI-aims is :             27.211384500 eV
  | For reference only, the overall average (free atom contribution
  | + realspace contribution) of the electrostatic potential after
  | s.c.f. convergence is                                          :            -20.187601282 eV

  Before relying on these values, please be sure to understand exactly which
  total energy value is referred to by a given number. Different objects may
  all carry the same name 'total energy'. Definitions:

  Total energy of the DFT / Hartree-Fock s.c.f. calculation:
  | Note that this energy does not include ANY quantities calculated after the
  | s.c.f. cycle, in particular not ANY RPA, MP2, etc. many-body perturbation terms.

  Final zero-broadening corrected energy:
  | For metallic systems only, a broadening of the occupation numbers at the Fermi
  | level can be extrapolated back to zero broadening by an electron-gas inspired
  | formula. For all systems that are not real metals, this value can be
  | meaningless and should be avoided.

------------------------------------------------------------------------------
  Methods described in the following list of references were used in this FHI-aims run.
  If you publish the results, please make sure to cite these reference if they apply.
  FHI-aims is an academic code, and for our developers (often, Ph.D. students
  and postdocs), scientific credit in the community is essential.
  Thank you for helping us!

  For any use of FHI-aims, please cite:

    Volker Blum, Ralf Gehrke, Felix Hanke, Paula Havu, Ville Havu,
    Xinguo Ren, Karsten Reuter, and Matthias Scheffler
    'Ab initio molecular simulations with numeric atom-centered orbitals'
    Computer Physics Communications 180, 2175-2196 (2009)
    http://dx.doi.org/10.1016/j.cpc.2009.06.022


  The provided symmetry information was generated with SPGlib:

    Atsushi Togo, Yusuke Seto, Dimitar Pashov
    SPGlib 1.7.3 obtained from http://spglib.sourceforge.net
    Copyright (C) 2008 Atsushi Togo


  The ELSI infrastructure was used in your run to solve the Kohn-Sham electronic structure.
  Please check out http://elsi-interchange.org to learn more.
  If scalability is important for your project, please acknowledge ELSI by citing:

    V. W-z. Yu, F. Corsetti, A. Garcia, W. P. Huhn, M. Jacquelin, W. Jia,
    B. Lange, L. Lin, J. Lu, W. Mi, A. Seifitokaldani, A. Vazquez-Mayagoitia,
    C. Yang, H. Yang, and V. Blum
    'ELSI: A unified software interface for Kohn-Sham electronic structure solvers'
    Computer Physics Communications 222, 267-285 (2018).
    http://dx.doi.org/10.1016/j.cpc.2017.09.007


  For the real-space grid partitioning and parallelization used in this calculation, please cite:

    Ville Havu, Volker Blum, Paula Havu, and Matthias Scheffler,
    'Efficient O(N) integration for all-electron electronic structure calculation'
    'using numerically tabulated basis functions'
    Journal of Computational Physics 228, 8367-8379 (2009).
    http://dx.doi.org/10.1016/j.jcp.2009.08.008

  Of course, there are many other important community references, e.g., those cited in the
  above references. Our list is limited to references that describe implementations in the
  FHI-aims code. The reason is purely practical (length of this list) - please credit others as well.

------------------------------------------------------------
          Leaving FHI-aims.
          Date     :  20201119, Time     :  200425.018

          Computational steps:
          | Number of self-consistency cycles          :           20
          | Number of SCF (re)initializations          :            1

          Detailed time accounting                     :  max(cpu_time)    wall_clock(cpu1)
          | Total time                                 :      830.625 s         854.986 s
          | Preparation time                           :        0.562 s           0.645 s
          | Boundary condition initalization           :        0.344 s           0.365 s
          | Grid partitioning                          :        0.797 s           0.832 s
          | Preloading free-atom quantities on grid    :        4.172 s           5.415 s
          | Free-atom superposition energy             :        0.453 s           0.477 s
          | Total time for integrations                :      166.672 s         173.189 s
          | Total time for solution of K.-S. equations :       83.969 s          86.814 s
          | Total time for density update              :      334.844 s         342.358 s
          | Total time for mixing & preconditioning    :       50.422 s          50.996 s
          | Total time for Hartree multipole update    :        0.188 s           0.176 s
          | Total time for Hartree multipole sum       :       70.297 s          71.125 s
          | Total time for total energy evaluation     :        0.031 s           0.023 s
          | Total time for scaled ZORA corrections     :        0.000 s           0.000 s

          Partial memory accounting:
          | Residual value for overall tracked memory usage across tasks:     5.747589 MB (should be 0.000000 MB)
          |
          | Largest tracked array allocation:
          |   Minimum:       49.834 MB (KS_eigenvector_complex on task 0)
          |   Maximum:       49.834 MB (KS_eigenvector_complex on task 0)
          |   Average:       49.834 MB
          |
          | Because the residual tracked memory usage was not zero, the peak value for overall
          | tracked memory usage was not output, as it is probably incorrect.  This is likely due
          | to a missing aims_deallocate statement in the source code, which should be otherwise
          | harmless.
          |
          Note:  These values currently only include a subset of arrays which are explicitly tracked.
          The "true" memory usage will be greater.

          Have a nice day.
------------------------------------------------------------
