------------------------------------------------------------
          Invoking FHI-aims ...

          When using FHI-aims, please cite the following reference:

          Volker Blum, Ralf Gehrke, Felix Hanke, Paula Havu,
          Ville Havu, Xinguo Ren, Karsten Reuter, and Matthias Scheffler,
          'Ab Initio Molecular Simulations with Numeric Atom-Centered Orbitals',
          Computer Physics Communications 180, 2175-2196 (2009)

          For any questions about FHI-aims, please visit the aimsclub website
          with its forums and wiki. Contributions to both the forums and the
          wiki are warmly encouraged - they are for you, and everyone is welcome there.

------------------------------------------------------------



  Date     :  20200402, Time     :  200118.070
  Time zero on CPU 1             :   0.104391000000000E+00  s.
  Internal wall clock time zero  :           355089678.070  s.

  FHI-aims created a unique identifier for this run for later identification
  aims_uuid : 9283D0D1-AE88-4171-A741-E1BBE765A307

  Build configuration of the current instance of FHI-aims
  -------------------------------------------------------
  FHI-aims version      : 200112
  Commit number         : 23daeca3f
  CMake host system     : Linux-3.10.0-693.21.1.el7.x86_64
  CMake version         : 3.13.3
  Fortran compiler      : /sw/installed/impi/2018.4.274-iccifort-2019.1.144-GCC-8.2.0-2.31.1/bin64/mpiifort (Intel) version 19.0.0.20181018
  Fortran compiler flags: -O3 -ip -fp-model precise
  C compiler            : /sw/installed/impi/2018.4.274-iccifort-2019.1.144-GCC-8.2.0-2.31.1/bin64/mpiicc (Intel) version 19.0.0.20181018
  C compiler flags      : -O3 -ip -fp-model precise
  Architecture          :
  Using MPI
  Using Scalapack
  Using C files
  Using LibXC
  Using SPGlib
  Using i-PI
  Using RLSY
  Linking against: /sw/installed/imkl/2019.1.144-iimpi-2019a/mkl/lib/intel64/libmkl_intel_lp64.so
                   /sw/installed/imkl/2019.1.144-iimpi-2019a/mkl/lib/intel64/libmkl_sequential.so
                   /sw/installed/imkl/2019.1.144-iimpi-2019a/mkl/lib/intel64/libmkl_core.so
                   /sw/installed/imkl/2019.1.144-iimpi-2019a/mkl/lib/intel64/libmkl_blacs_intelmpi_lp64.so
                   /sw/installed/imkl/2019.1.144-iimpi-2019a/mkl/lib/intel64/libmkl_scalapack_lp64.so

  Using       24 parallel tasks.
  Task        0 on host taurusi6258.taurus.hrsk.tu-dresden.de reporting.
  Task        1 on host taurusi6258.taurus.hrsk.tu-dresden.de reporting.
  Task        2 on host taurusi6258.taurus.hrsk.tu-dresden.de reporting.
  Task        3 on host taurusi6258.taurus.hrsk.tu-dresden.de reporting.
  Task        4 on host taurusi6258.taurus.hrsk.tu-dresden.de reporting.
  Task        5 on host taurusi6258.taurus.hrsk.tu-dresden.de reporting.
  Task        6 on host taurusi6258.taurus.hrsk.tu-dresden.de reporting.
  Task        7 on host taurusi6258.taurus.hrsk.tu-dresden.de reporting.
  Task        8 on host taurusi6258.taurus.hrsk.tu-dresden.de reporting.
  Task        9 on host taurusi6258.taurus.hrsk.tu-dresden.de reporting.
  Task       10 on host taurusi6258.taurus.hrsk.tu-dresden.de reporting.
  Task       11 on host taurusi6258.taurus.hrsk.tu-dresden.de reporting.
  Task       12 on host taurusi6258.taurus.hrsk.tu-dresden.de reporting.
  Task       13 on host taurusi6258.taurus.hrsk.tu-dresden.de reporting.
  Task       14 on host taurusi6258.taurus.hrsk.tu-dresden.de reporting.
  Task       15 on host taurusi6258.taurus.hrsk.tu-dresden.de reporting.
  Task       16 on host taurusi6258.taurus.hrsk.tu-dresden.de reporting.
  Task       17 on host taurusi6258.taurus.hrsk.tu-dresden.de reporting.
  Task       18 on host taurusi6258.taurus.hrsk.tu-dresden.de reporting.
  Task       19 on host taurusi6258.taurus.hrsk.tu-dresden.de reporting.
  Task       20 on host taurusi6258.taurus.hrsk.tu-dresden.de reporting.
  Task       21 on host taurusi6258.taurus.hrsk.tu-dresden.de reporting.
  Task       22 on host taurusi6258.taurus.hrsk.tu-dresden.de reporting.
  Task       23 on host taurusi6258.taurus.hrsk.tu-dresden.de reporting.

  Performing system and environment tests:
  | Environment variable OMP_NUM_THREADS correctly set to 1.
  | Maximum stacksize for task 0: unlimited
  | Maximum stacksize for task 1: unlimited
  | Maximum stacksize for task 2: unlimited
  | Maximum stacksize for task 3: unlimited
  | Maximum stacksize for task 4: unlimited
  | Maximum stacksize for task 5: unlimited
  | Maximum stacksize for task 6: unlimited
  | Maximum stacksize for task 7: unlimited
  | Maximum stacksize for task 8: unlimited
  | Maximum stacksize for task 9: unlimited
  | Maximum stacksize for task 10: unlimited
  | Maximum stacksize for task 11: unlimited
  | Maximum stacksize for task 12: unlimited
  | Maximum stacksize for task 13: unlimited
  | Maximum stacksize for task 14: unlimited
  | Maximum stacksize for task 15: unlimited
  | Maximum stacksize for task 16: unlimited
  | Maximum stacksize for task 17: unlimited
  | Maximum stacksize for task 18: unlimited
  | Maximum stacksize for task 19: unlimited
  | Maximum stacksize for task 20: unlimited
  | Maximum stacksize for task 21: unlimited
  | Maximum stacksize for task 22: unlimited
  | Maximum stacksize for task 23: unlimited
  | Current stacksize for task 0: unlimited
  | Current stacksize for task 1: unlimited
  | Current stacksize for task 2: unlimited
  | Current stacksize for task 3: unlimited
  | Current stacksize for task 4: unlimited
  | Current stacksize for task 5: unlimited
  | Current stacksize for task 6: unlimited
  | Current stacksize for task 7: unlimited
  | Current stacksize for task 8: unlimited
  | Current stacksize for task 9: unlimited
  | Current stacksize for task 10: unlimited
  | Current stacksize for task 11: unlimited
  | Current stacksize for task 12: unlimited
  | Current stacksize for task 13: unlimited
  | Current stacksize for task 14: unlimited
  | Current stacksize for task 15: unlimited
  | Current stacksize for task 16: unlimited
  | Current stacksize for task 17: unlimited
  | Current stacksize for task 18: unlimited
  | Current stacksize for task 19: unlimited
  | Current stacksize for task 20: unlimited
  | Current stacksize for task 21: unlimited
  | Current stacksize for task 22: unlimited
  | Current stacksize for task 23: unlimited
  | Checking for scalapack...
  | Testing pdtran()...
  | All pdtran() tests passed.

  Obtaining array dimensions for all initial allocations:
  
  -----------------------------------------------------------------------
  Parsing control.in (first pass over file, find array dimensions only).
  The contents of control.in will be repeated verbatim below
  unless switched off by setting 'verbatim_writeout .false.' .
  in the first line of control.in .
  -----------------------------------------------------------------------
  
  #===============================================================================
  # FHI-aims file: ./control.in
  # Created using the Atomic Simulation Environment (ASE)
  # Thu Apr  2 11:29:47 2020
  #===============================================================================
  xc                                 pbe
  # include_spin_orbit
  # vdw_correction_hirshfeld
  many_body_dispersion_nl 	 beta=0.81
  spin                               none
  k_grid 	 	 9 9 9
  relativistic                       atomic_zora scalar
  ### SCF settings
  adjust_scf 	 always 	 3
  # frozen_core_scf 	 .true.
  # charge_mix_param  0.05
  # occupation_type 	 gaussian 	 0.01
  # sc_accuracy_eev   1E-3 	 	 # sum of eigenvalues convergence
  # sc_accuracy_etot  1E-6 	 	 # total energy convergence
  # sc_accuracy_rho   1E-3 	 	 # electron density convergence
  # elsi_restart 	 read_and_write 	 1000
  ### geometry optimisation section
  relax_geometry 	 bfgs 	 1E-2
  relax_unit_cell 	 full
  #===============================================================================
  
  ################################################################################
  #
  #  FHI-aims code project
  # Volker Blum, Fritz Haber Institute Berlin, 2009
  #
  #  Suggested "tight" defaults for Pt atom (to be pasted into control.in file)
  #
  ################################################################################
    species        Pt
  #     global species definitions
      nucleus             78
      mass                195.084
  #
      l_hartree           6
  #
      cut_pot             4.0  2.0  1.0
      basis_dep_cutoff    1e-4
  #
      radial_base         72 7.0
      radial_multiplier   2
      angular_grids specified
        division   0.3279   50
        division   0.7476  110
        division   1.0850  194
        division   1.2652  302
        division   1.6291  434
  #      division   1.9966  590
  #      division   2.1207  770
  #      division   2.1534  974
  #      division   2.7454 1202
  #      outer_grid    974
        outer_grid  434
  ################################################################################
  #
  #  Definition of "minimal" basis
  #
  ################################################################################
  #     valence basis states
      valence      6  s   1.
      valence      5  p   6.
      valence      5  d   9.
      valence      4  f  14.
  #     ion occupancy
      ion_occ     6  s   0.
      ion_occ     5  p   6.
      ion_occ     5  d   8.
      ion_occ     4  f   14.
  ################################################################################
  #
  #  Suggested additional basis functions. For production calculations,
  #  uncomment them one after another (the most important basis functions are
  #  listed first).
  #
  #  Constructed for dimers: 2.00, 2.275, 2.75, 3.75 AA
  #
  ################################################################################
  #  "First tier" - max. impr. -193.66  meV, min. impr. -18.25 meV
       hydro 4 f 7.4
       ionic 6 p auto
       hydro 5 g 9.8
       ionic 6 s auto
       hydro 3 d 2.6
  #  "Second tier" - max. impr. -10.25  meV, min. impr. -0.56 meV
  #     hydro 6 h 14
  #     hydro 5 f 14
  #     hydro 4 d 4
  #     hydro 3 p 3.3
  #     hydro 5 g 16.4
  #     hydro 1 s 0.5
  #  "Third tier" - max. impr. -0.72  meV, min. impr. -0.18 meV
  #     hydro 5 f 9
  #     ionic 5 d auto
  #     hydro 6 h 16.4
  #     hydro 5 g 12.4
  #     hydro 5 g 34
  #     hydro 5 s 13.6
  #     hydro 5 p 10.4
  #  Further functions: ################################################################################
  #
  #  FHI-aims code project
  # Volker Blum, Fritz Haber Institute Berlin, 2009
  #
  #  Suggested "tight" defaults for Se atom (to be pasted into control.in file)
  #
  ################################################################################
    species        Se
  #     global species definitions
      nucleus             34
      mass                78.96
  #
      l_hartree           6
  #
      cut_pot             4.0          2.0  1.0
      basis_dep_cutoff    1e-4
  #
      radial_base         55 7.0
      radial_multiplier   2
      angular_grids       specified
        division   0.0830  110
        division   0.1357  194
        division   0.7377  302
        division   0.8610  434
  #      division   0.9640  590
  #      division   1.0773  770
  #      division   2.5539  974
  #      outer_grid  974
        outer_grid  434
  ################################################################################
  #
  #  Definition of "minimal" basis
  #
  ################################################################################
  #     valence basis states
      valence      4  s   2.
      valence      4  p   4.
      valence      3  d  10.
  #     ion occupancy
      ion_occ      4  s   1.
      ion_occ      4  p   3.
      ion_occ      3  d  10.
  ################################################################################
  #
  #  Suggested additional basis functions. For production calculations,
  #  uncomment them one after another (the most important basis functions are
  #  listed first).
  #
  #  Constructed for dimers: 1.85 A, 2.15 A, 2.50 A, 3.00 A, 4.00 A
  #
  ################################################################################
  #  "First tier" - improvements: -336.21 meV to -36.85 meV
       hydro 3 d 4.3
       hydro 2 p 1.6
       hydro 4 f 7.2
       ionic 4 s auto
  #  "Second tier" - improvements: -14.39 meV to -1.49 meV
  #     hydro 5 g 10.4
  #     hydro 4 p 4.5
  #     hydro 4 d 6.2
  #     hydro 4 f 11.2
  #     hydro 1 s 0.65
  #     hydro 6 h 15.2
  #  "Third tier" - improvements: -0.46 meV and below
  #     hydro 5 g 14.4
  #     ionic 4 d auto
  #     hydro 4 f 22.4
  #     hydro 5 f 7.4
  #     hydro 5 p 8
  #     hydro 5 s 9.4
  #  "Fourth tier" - improvements: -0.12 meV and below
  #     hydro 5 d 11.6
  #     hydro 6 h 18
  #     hydro 4 p 4
  #     hydro 5 f 16
  #     hydro 4 s 3.9
  #
  #
  
  -----------------------------------------------------------------------
  Completed first pass over input file control.in .
  -----------------------------------------------------------------------
  
  
  -----------------------------------------------------------------------
  Parsing geometry.in (first pass over file, find array dimensions only).
  The contents of geometry.in will be repeated verbatim below
  unless switched off by setting 'verbatim_writeout .false.' .
  in the first line of geometry.in .
  -----------------------------------------------------------------------
  
  #=======================================================
  # FHI-aims file: geometry.in
  # Created using the Atomic Simulation Environment (ASE)
  # Thu Apr  2 11:29:47 2020
  #=======================================================
  lattice_vector 3.7869355100000002 0.0000000000000000 0.0000000000000000
  lattice_vector -1.8934677600000001 3.2795823600000000 0.0000000000000000
  lattice_vector 0.0000000000000000 0.0000000000000000 4.8635549500000002
  atom_frac 0.0000000000000000 0.0000000000000000 0.0000000000000000 Pt
  atom_frac 0.3333333342135525 0.6666666666666666 0.2685420692121511 Se
  atom_frac 0.6666666684271050 0.3333333333333333 0.7314579307878489 Se
  symmetry_n_params 11 2 9
  symmetry_params a1 c3 x0 x1 x2 x3 x4 x5 x6 x7 x8
  symmetry_lv a1 , 0 , 0
  symmetry_lv -a1/2 , sqrt(3.0)*a1/2 , 0
  symmetry_lv 0 , 0 , c3
  symmetry_frac x0 , x1 , x2
  symmetry_frac x3 , x4 , x5
  symmetry_frac x6 , x7 , x8
  
  -----------------------------------------------------------------------
  Completed first pass over input file geometry.in .
  -----------------------------------------------------------------------
  

  Basic array size parameters:
  | Number of species                 :        2
  | Number of atoms                   :        3
  | Number of lattice vectors         :        3
  | Max. basis fn. angular momentum   :        4
  | Max. atomic/ionic basis occupied n:        6
  | Max. number of basis fn. types    :        3
  | Max. radial fns per species/type  :       14
  | Max. logarithmic grid size        :     1487
  | Max. radial integration grid size :      145
  | Max. angular integration grid size:      434
  | Max. angular grid division number :        8
  | Radial grid for Hartree potential :     1487
  | Number of spin channels           :        1

------------------------------------------------------------
          Reading file control.in.
------------------------------------------------------------
  XC: Using PBE gradient-corrected functionals.
  Using libMBD for calculating MBD and TS energies
  Spin treatment: No spin polarisation.
  Found k-point grid:         9         9         9
  Scalar relativistic treatment of kinetic energy: on-site free-atom approximation to ZORA.
  S.C.F. convergence parameters will be adjusted in iteration number     3 of each new s.c.f. cycle.
  Geometry relaxation: Modified BFGS - TRM (trust radius method) for lattice optimization.
  Convergence accuracy for geometry relaxation: Maximum force <   0.100000E-01 eV/A.
 
  Reading configuration options for species Pt                  .
  | Found nuclear charge :  78.0000
  | Found atomic mass :    195.084000000000      amu
  | Found l_max for Hartree potential  :   6
  | Found cutoff potl. onset [A], width [A], scale factor :    4.00000    2.00000    1.00000
  | Threshold for basis-dependent cutoff potential is   0.100000E-03
  | Found data for basic radial integration grid :    72 points, outermost radius =    7.000 A
  | Found multiplier for basic radial grid :   2
  | Found angular grid specification: user-specified.
  | Specified grid contains     6 separate shells.
  | Check grid settings after all constraints further below.
  | Found free-atom valence shell :  6 s   1.000
  | Found free-atom valence shell :  5 p   6.000
  | Found free-atom valence shell :  5 d   9.000
  | Found free-atom valence shell :  4 f  14.000
  | Found free-ion valence shell :  6 s   0.000
  | Found free-ion valence shell :  5 p   6.000
  | Found free-ion valence shell :  5 d   8.000
  | Found free-ion valence shell :  4 f  14.000
  | Found hydrogenic basis function :  4 f   7.400
  | Found ionic basis function :  6 p , default cutoff radius.
  | Found hydrogenic basis function :  5 g   9.800
  | Found ionic basis function :  6 s , default cutoff radius.
  | Found hydrogenic basis function :  3 d   2.600
  Species Pt                  : Missing cutoff potential type.
  Defaulting to exp(1/x)/(1-x)^2 type cutoff potential.
  Species Pt: No 'logarithmic' tag. Using default grid for free atom:
  | Default logarithmic grid data [bohr] : 0.1000E-03 0.1000E+03 0.1012E+01
  | Will include ionic basis functions of  2.0-fold positive Pt                   ion.
  Species Pt: On-site basis accuracy parameter (for Gram-Schmidt orthonormalisation) not specified.
  Using default value basis_acc =  0.1000000E-03.
  Species Pt                  : Using default innermost maximum threshold i_radial=  2 for radial functions.
  Species Pt                  : Default cutoff onset for free atom density etc. : 0.40000000E+01 AA.
  Species Pt                  : Basic radial grid will be enhanced according to radial_multiplier =   2, to contain   145 grid points.
 
  Reading configuration options for species Se                  .
  | Found nuclear charge :  34.0000
  | Found atomic mass :    78.9600000000000      amu
  | Found l_max for Hartree potential  :   6
  | Found cutoff potl. onset [A], width [A], scale factor :    4.00000    2.00000    1.00000
  | Threshold for basis-dependent cutoff potential is   0.100000E-03
  | Found data for basic radial integration grid :    55 points, outermost radius =    7.000 A
  | Found multiplier for basic radial grid :   2
  | Found angular grid specification: user-specified.
  | Specified grid contains     5 separate shells.
  | Check grid settings after all constraints further below.
  | Found free-atom valence shell :  4 s   2.000
  | Found free-atom valence shell :  4 p   4.000
  | Found free-atom valence shell :  3 d  10.000
  | Found free-ion valence shell :  4 s   1.000
  | Found free-ion valence shell :  4 p   3.000
  | Found free-ion valence shell :  3 d  10.000
  | Found hydrogenic basis function :  3 d   4.300
  | Found hydrogenic basis function :  2 p   1.600
  | Found hydrogenic basis function :  4 f   7.200
  | Found ionic basis function :  4 s , default cutoff radius.
  Species Se                  : Missing cutoff potential type.
  Defaulting to exp(1/x)/(1-x)^2 type cutoff potential.
  Species Se: No 'logarithmic' tag. Using default grid for free atom:
  | Default logarithmic grid data [bohr] : 0.1000E-03 0.1000E+03 0.1012E+01
  | Will include ionic basis functions of  2.0-fold positive Se                   ion.
  Species Se: On-site basis accuracy parameter (for Gram-Schmidt orthonormalisation) not specified.
  Using default value basis_acc =  0.1000000E-03.
  Species Se                  : Using default innermost maximum threshold i_radial=  2 for radial functions.
  Species Se                  : Default cutoff onset for free atom density etc. : 0.40000000E+01 AA.
  Species Se                  : Basic radial grid will be enhanced according to radial_multiplier =   2, to contain   111 grid points.
 
  Finished reading input file 'control.in'. Consistency checks are next.
 
  MPI_IN_PLACE appears to work with this MPI implementation.
  | Keeping use_mpi_in_place .true. (see manual).
  Target number of points in a grid batch is not set. Defaulting to  100
  Method for grid partitioning is not set. Defaulting to parallel hash+maxmin partitioning.
  Batch size limit is not set. Defaulting to    200
  By default, will store active basis functions for each batch.
  If in need of memory, prune_basis_once .false. can be used to disable this option.
  communication_type for Hartree potential was not specified.
  Defaulting to calc_hartree .
  Defaulting to Pulay charge density mixer.
  Pulay mixer: Number of relevant iterations not set.
  Defaulting to    8 iterations.
  Pulay mixer: Number of initial linear mixing iterations not set.
  Defaulting to    0 iterations.
  Work space size for distributed Hartree potential not set.
  Defaulting to   0.200000E+03 MB.
  Mixing parameter for charge density mixing has not been set.
  Using default: charge_mix_param =     0.0500.
  The mixing parameter will be adjusted in iteration number     3 of each s.c.f. cycle (i.e., each geometry step).
  Algorithm-dependent basis array size parameters:
  | n_max_pulay                         :        8
  Maximum number of self-consistency iterations not provided.
  Presetting  1000 iterations.
  Presetting      1001 iterations before the initial mixing cycle
  is restarted anyway using the sc_init_iter criterion / keyword.
  Presetting a factor      1.000 between actual scf density residual
  and density convergence criterion sc_accuracy_rho below which sc_init_iter
  takes no effect.
 * No s.c.f. convergence criteria (sc_accuracy_*) were provided in control.in.
 * The run will proceed with a reasonable default guess, but please check whether.
 * the s.c.f. cycles seem to take too much or too little time.
  No maximum number of relaxation steps, defaulting to     1000
  Default initial Hessian is Lindh matrix (thres = 15.00) plus  0.200000E+01 eV/A^2 times unity.
  No maximum energy tolerance for TRM/BFGS moves, defaulting to   0.100000E-02
  Maximum energy tolerance by which TRM/BFGS trajectory may increase over multiple steps:   0.300000E-02
  No harmonic length scale. Defaulting to   0.250000E-01 A.
  No trust radius initializer. Defaulting to   0.200000E+00 A.
  Unit cell relaxation: Unit cell will be relaxed fully.
  Unit cell relaxation: Analytical stress will be used.
  Analytical stress will be computed.
  Analytical stress calculation: Only the upper triangle is calculated.
                                 Final output is symmetrized.
  Analytical stress calculation: scf convergence accuracy of stress not set.
                                 Analytical stress self-consistency will not be checked explicitly.
                                 Be sure to set other criteria like sc_accuracy_rho tight enough.
 * Notice: The s.c.f. convergence criterion sc_accuracy_rho was not provided.
 * We used to stop in this case, and ask the user to provide reasonable
 * scf convergence criteria. However, this led some users to employ criteria
 * that led to extremely long run times, e.g., for simple relaxation.
 * We now preset a default value for sc_accuracy_rho if it is not set.
 * You may still wish to check if this setting is too tight or too loose for your needs.
 * Based on n_atoms, FHI-aims chose sc_accuracy_rho =  0.100000E-05 .
  Force calculation: scf convergence accuracy of forces not set.
  Defaulting to 'sc_accuracy_forces not_checked'.
  Handling of forces: Unphysical translation and rotation will be removed from forces.
  No accuracy limit for integral partition fn. given. Defaulting to  0.1000E-14.
  No threshold value for u(r) in integrations given. Defaulting to  0.1000E-05.
  No occupation type (smearing scheme) given. Defaulting to Gaussian broadening, width =  0.1000E-01 eV.
  The width will be adjusted in iteration number     3 of each s.c.f. cycle (i.e., each geometry step).
  S.C.F. convergence parameters will be adjusted in iteration number     3 of the first full s.c.f. cycle only.
  No accuracy for occupation numbers given. Defaulting to  0.1000E-12.
  No threshold value for occupation numbers given. Defaulting to  0.0000E+00.
  No accuracy for fermi level given. Defaulting to  0.1000E-19.
  Maximum # of iterations to find E_F not set. Defaulting to  200.
  Preferred method for the eigenvalue solver ('KS_method') not specified in 'control.in'.
  Defaulting to serial version, LAPACK (via ELSI), since more k-points than CPUs available.
  Will not use alltoall communication since running on < 1024 CPUs.
  Threshold for basis singularities not set.
  Default threshold for basis singularities:  0.1000E-04
  partition_type (choice of integration weights) for integrals was not specified.
  | Using a version of the partition function of Stratmann and coworkers ('stratmann_sparse').
  | At each grid point, the set of atoms used to build the partition table is smoothly restricted to
  | only those atoms whose free-atom density would be non-zero at that grid point.
  Partitioning for Hartree potential was not defined. Using partition_type for integrals.
  | Adjusted default value of keyword multip_moments_threshold to:       0.10000000E-11
  | This value may affect high angular momentum components of the Hartree potential in periodic systems.
  Angular momentum expansion for Kerker preconditioner not set explicitly.
  | Using default value of   0
  No explicit requirement for turning off preconditioner.
  | By default, it will be turned off when the charge convergence reaches
  | sc_accuracy_rho  =   0.100000E-05
  No special mixing parameter while Kerker preconditioner is on.
  Using default: charge_mix_param =     0.0500.
  No q(lm)/r^(l+1) cutoff set for long-range Hartree potential.
  | Using default value of  0.100000E-09 .
  | Verify using the multipole_threshold keyword.
  Defaulting to new monopole extrapolation.
  Density update method: automatic selection selected.
  Using density matrix based charge density update.
  Using density matrix based charge density update.
  Using packed matrix style: index .
  Geometry relaxation: A file "geometry.in.next_step" is written out by default after each step.
  | This file contains the geometry of the current relaxation step as well as
  | the current Hessian matrix needed to restart the relaxation algorithm.
  | If you do not want part or all of this information, use the keywords
  | "write_restart_geometry" or "hessian_to_restart_geometry" to switch the output off.
  Defaulting to use time-reversal symmetry for k-point grid.
  Charge integration errors on the 3D integration grid will be compensated
  by explicit normalization and distribution of residual charges.
  Use the "compensate_multipole_errors" flag to change this behaviour.
------------------------------------------------------------


------------------------------------------------------------
          Reading geometry description geometry.in.
------------------------------------------------------------
  Input structure read successfully.
  The structure contains        3 atoms,  and a total of        146.000 electrons.

  Input geometry:
  | Unit cell:
  |        3.78693551        0.00000000        0.00000000
  |       -1.89346776        3.27958236        0.00000000
  |        0.00000000        0.00000000        4.86355495
  | Atomic structure:
  |       Atom                x [A]            y [A]            z [A]
  |    1: Species Pt            0.00000000        0.00000000        0.00000000
  |    2: Species Se            0.00000000        2.18638824        1.30606911
  |    3: Species Se            1.89346776        1.09319412        3.55748584

  Lattice parameters for 3D lattice (in Angstroms) :     3.786936    3.786936    4.863555
  Angle(s) between unit vectors (in degrees)       :    90.000000   90.000000  120.000000

  | The smallest distance between any two atoms is         2.54678425 AA.
  | The first atom of this pair is atom number                      1 .
  | The second atom of this pair is atom number                     3 .
  | Wigner-Seitz cell of the first atom image           0     0     0 .
  | (The Wigner-Seitz cell of the second atom is 0 0 0  by definition.)

  Symmetry information by spglib:
  | Precision set to  0.1E-04
  | Number of Operations  : 12
  | Space group           : 164
  | International         : P-3m1
  | Schoenflies           : D3d^3

  Quantities derived from the lattice vectors:
  | Reciprocal lattice vector 1:  1.659174  0.957925  0.000000
  | Reciprocal lattice vector 2: -0.000000  1.915849  0.000000
  | Reciprocal lattice vector 3:  0.000000  0.000000  1.291892
  | Unit cell volume                               :   0.604032E+02  A^3

  Range separation radius for Ewald summation (hartree_convergence_parameter):      3.89684492 bohr.

  Fractional coordinates:
                         L1                L2                L3
       atom_frac         0.00000000        0.00000000        0.00000000  Pt
       atom_frac         0.33333333        0.66666667        0.26854207  Se
       atom_frac         0.66666667        0.33333333        0.73145793  Se

  Number of empty states per atom not set in control.in - providing a guess from actual geometry.
  | Total number of empty states used during s.c.f. cycle:       20
  If you use a very high smearing, use empty_states (per atom!) in control.in to increase this value.

  Structure-dependent array size parameters: 
  | Maximum number of distinct radial functions  :       31
  | Maximum number of basis functions            :      133
  | Number of Kohn-Sham states (occupied + empty):       93
------------------------------------------------------------

------------------------------------------------------------
          Preparing all fixed parts of the calculation.
------------------------------------------------------------
  Determining machine precision:
    2.225073858507201E-308
  Setting up grids for atomic and cluster calculations.

  Creating wave function, potential, and density for free atoms.

  Species: Pt

  List of occupied orbitals and eigenvalues:
    n    l              occ      energy [Ha]    energy [eV]
    1    0           2.0000     -3153.103304    -85800.3064
    2    0           2.0000      -515.589489    -14029.9038
    3    0           2.0000      -119.501787     -3251.8091
    4    0           2.0000       -25.569766      -695.7887
    5    0           2.0000        -3.736651      -101.6795
    6    0           1.0000        -0.206416        -5.6169
    2    1           6.0000      -445.953190    -12135.0037
    3    1           6.0000       -99.656176     -2711.7825
    4    1           6.0000       -19.104871      -519.8700
    5    1           6.0000        -2.054483       -55.9053
    3    2          10.0000       -78.244476     -2129.1405
    4    2          10.0000       -11.276663      -306.8536
    5    2           9.0000        -0.224682        -6.1139
    4    3          14.0000        -2.581704       -70.2517


  Species: Se

  List of occupied orbitals and eigenvalues:
    n    l              occ      energy [Ha]    energy [eV]
    1    0           2.0000      -466.337810    -12689.6975
    2    0           2.0000       -59.202598     -1610.9847
    3    0           2.0000        -7.847116      -213.5309
    4    0           2.0000        -0.634372       -17.2621
    2    1           6.0000       -52.061107     -1416.6548
    3    1           6.0000        -5.620941      -152.9536
    4    1           4.0000        -0.238469        -6.4891
    3    2          10.0000        -1.951949       -53.1152

  Creating fixed part of basis set: Ionic, confined, hydrogenic.
 
  Pt                   ion:

  List of free ionic orbitals and eigenvalues:
    n    l      energy [Ha]    energy [eV]
    1    0     -3153.944388    -85823.1934
    2    0      -516.374474    -14051.2643
    3    0      -120.278274     -3272.9384
    4    0       -26.344243      -716.8633
    5    0        -4.507613      -122.6584
    2    1      -446.736765    -12156.3259
    3    1      -100.432254     -2732.9007
    4    1       -19.879176      -540.9399
    5    1        -2.820901       -76.7606
    3    2       -79.020090     -2150.2461
    4    2       -12.050716      -327.9167
    5    2        -0.950990       -25.8778
    4    3        -3.355307       -91.3026


  List of ionic basis orbitals and eigenvalues:
    n    l      energy [Ha]    energy [eV]    outer radius [A]
    6    1        -0.526730       -14.3331       5.414053
    6    0        -0.812719       -22.1152       5.155675

 
  Pt                   hydrogenic:
 
  List of hydrogenic basis orbitals: 
    n    l      effective z      eigenvalue [eV]  inner max. [A]     outer max. [A]     outer radius [A]   
    4    3         7.400000       -46.5653           1.146169           1.146169           4.909628
    5    4         9.800000       -52.2674           1.343596           1.343596           5.155675
    3    2         2.600000       -10.1361           1.823895           1.823895           5.480646
 
 
  Se                   ion:

  List of free ionic orbitals and eigenvalues:
    n    l      energy [Ha]    energy [eV]
    1    0      -467.261007    -12714.8189
    2    0       -60.104893     -1635.5374
    3    0        -8.743714      -237.9286
    4    0        -1.414053       -38.4783
    2    1       -52.964156     -1441.2280
    3    1        -6.516916      -177.3343
    4    1        -0.961869       -26.1738
    3    2        -2.844511       -77.4031


  List of ionic basis orbitals and eigenvalues:
    n    l      energy [Ha]    energy [eV]    outer radius [A]
    4    0        -1.414046       -38.4782       4.083166

 
  Se                   hydrogenic:
 
  List of hydrogenic basis orbitals: 
    n    l      effective z      eigenvalue [eV]  inner max. [A]     outer max. [A]     outer radius [A]   
    3    2         4.300000       -27.9518           1.103845           1.103845           5.278265
    2    1         1.600000        -8.6828           1.326010           1.326010           5.475439
    4    3         7.200000       -44.0822           1.173422           1.173422           4.965294
 

  Adding cutoff potential to free-atom effective potential.
  Creating atomic-like basis functions for current effective potential.

  Species Pt                  :

  List of atomic basis orbitals and eigenvalues:
    n    l      energy [Ha]    energy [eV]    outer radius [A]
    1    0     -3153.103304    -85800.3064       0.122365
    2    0      -515.589489    -14029.9038       0.321431
    3    0      -119.501787     -3251.8091       0.669333
    4    0       -25.569766      -695.7887       1.393787
    5    0        -3.736651      -101.6795       3.402290
    6    0        -0.206416        -5.6169       5.414053
    2    1      -445.953190    -12135.0037       0.333438
    3    1       -99.656176     -2711.7825       0.720273
    4    1       -19.104871      -519.8700       1.575030
    5    1        -2.054483       -55.9053       4.398103
    3    2       -78.244476     -2129.1405       0.765673
    4    2       -11.276663      -306.8536       1.915300
    5    2        -0.224682        -6.1139       5.348269
    4    3        -2.581704       -70.2517       3.402290


  Species Se                  :

  List of atomic basis orbitals and eigenvalues:
    n    l      energy [Ha]    energy [eV]    outer radius [A]
    1    0      -466.337810    -12689.6975       0.309561
    2    0       -59.202598     -1610.9847       0.885812
    3    0        -7.847116      -213.5309       2.355489
    4    0        -0.634372       -17.2621       5.214131
    2    1       -52.061107     -1416.6548       0.907737
    3    1        -5.620941      -152.9536       2.694529
    4    1        -0.238469        -6.4891       5.408909
    3    2        -1.951949       -53.1152       4.083166

  Assembling full basis from fixed parts.
  | Species Pt :   atomic orbital   1 s accepted.
  | Species Pt :   atomic orbital   2 s accepted.
  | Species Pt :   atomic orbital   3 s accepted.
  | Species Pt :   atomic orbital   4 s accepted.
  | Species Pt :   atomic orbital   5 s accepted.
  | Species Pt :    ionic orbital   6 s accepted.
  | Species Pt :   atomic orbital   6 s accepted.
  | Species Pt :   atomic orbital   2 p accepted.
  | Species Pt :   atomic orbital   3 p accepted.
  | Species Pt :   atomic orbital   4 p accepted.
  | Species Pt :   atomic orbital   5 p accepted.
  | Species Pt :    ionic orbital   6 p accepted.
  | Species Pt :   atomic orbital   3 d accepted.
  | Species Pt :   atomic orbital   4 d accepted.
  | Species Pt :   atomic orbital   5 d accepted.
  | Species Pt :    hydro orbital   3 d accepted.
  | Species Pt :   atomic orbital   4 f accepted.
  | Species Pt :    hydro orbital   4 f accepted.
  | Species Pt :    hydro orbital   5 g accepted.
  | Species Se :   atomic orbital   1 s accepted.
  | Species Se :   atomic orbital   2 s accepted.
  | Species Se :   atomic orbital   3 s accepted.
  | Species Se :    ionic orbital   4 s accepted.
  | Species Se :   atomic orbital   4 s accepted.
  | Species Se :   atomic orbital   2 p accepted.
  | Species Se :   atomic orbital   3 p accepted.
  | Species Se :   atomic orbital   4 p accepted.
  | Species Se :    hydro orbital   2 p accepted.
  | Species Se :   atomic orbital   3 d accepted.
  | Species Se :    hydro orbital   3 d accepted.
  | Species Se :    hydro orbital   4 f accepted.
 
  Basis size parameters after reduction:
  | Total number of radial functions:       31
  | Total number of basis functions :      133
 
  Per-task memory consumption for arrays in subroutine allocate_ext:
  |          11.805792MB.
  Testing on-site integration grid accuracy.
  |  Species  Function  <phi|h_atom|phi> (log., in eV)  <phi|h_atom|phi> (rad., in eV)
           1        1             -85800.3063919403             -85800.2856196526
           1        2             -14029.9038190300             -14029.9034024833
           1        3              -3251.8090796931              -3251.8090493723
           1        4               -695.7887467633               -695.7887380841
           1        5               -101.6794541333               -101.6794523387
           1        6                 -5.0775855766                 -5.0775852323
           1        7                  4.7711468026                  4.7712019690
           1        8             -12135.0037192377             -12135.0037104521
           1        9              -2711.7825232731              -2711.7825171064
           1       10               -519.8699987955               -519.8699936807
           1       11                -55.9053342201                -55.9053330049
           1       12                  0.5776141106                  0.5776162192
           1       13              -2129.1405232679              -2129.1405210333
           1       14               -306.8536046277               -306.8536019160
           1       15                 -6.1140333556                 -6.1140328158
           1       16                  6.1273756157                  6.1274132679
           1       17                -70.2517499686                -70.2517493411
           1       18                 21.2263775586                 21.2263774796
           1       19                 35.7069304613                 35.7069304872
           2       20             -12689.6974611609             -12689.6967666984
           2       21              -1610.9846578580              -1610.9846472470
           2       22               -213.5308789869               -213.5308777267
           2       23                -17.0464428502                -17.0464426496
           2       24                  6.7356859379                  6.7356842047
           2       25              -1416.6548010133              -1416.6548002108
           2       26               -152.9535734377               -152.9535727493
           2       27                 -6.4896265677                 -6.4896303794
           2       28                  5.2703037283                  5.2701679583
           2       29                -53.1152220964                -53.1152219035
           2       30                  7.6186674138                  7.6186665630
           2       31                 23.1072799052                 23.1072803137

  Preparing densities etc. for the partition functions (integrals / Hartree potential).

  Preparations completed.
  max(cpu_time)          :      0.662 s.
  Wall clock time (cpu1) :      0.717 s.
------------------------------------------------------------

------------------------------------------------------------
          Begin self-consistency loop: Initialization.

          Date     :  20200402, Time     :  200119.260
------------------------------------------------------------

  Initializing index lists of integration centers etc. from given atomic structure:
  Mapping all atomic coordinates to central unit cell.

  Initializing the k-points
  Using symmetry for reducing the k-points
  | k-points reduced from:      729 to      365
  | Number of k-points                             :       365
  The eigenvectors in the calculations are COMPLEX.
  | K-points in task   0:        15
  | K-points in task   1:        16
  | K-points in task   2:        16
  | K-points in task   3:        16
  | K-points in task   4:        16
  | K-points in task   5:        16
  | K-points in task   6:        15
  | K-points in task   7:        15
  | K-points in task   8:        15
  | K-points in task   9:        15
  | K-points in task  10:        15
  | K-points in task  11:        15
  | K-points in task  12:        15
  | K-points in task  13:        15
  | K-points in task  14:        15
  | K-points in task  15:        15
  | K-points in task  16:        15
  | K-points in task  17:        15
  | K-points in task  18:        15
  | K-points in task  19:        15
  | K-points in task  20:        15
  | K-points in task  21:        15
  | K-points in task  22:        15
  | K-points in task  23:        15
  | Number of basis functions in the Hamiltonian integrals :      3651
  | Number of basis functions in a single unit cell        :       133
  | Number of centers in hartree potential         :       979
  | Number of centers in hartree multipole         :       577
  | Number of centers in electron density summation:       407
  | Number of centers in basis integrals           :       439
  | Number of centers in integrals                 :       161
  | Number of centers in hamiltonian               :       415
  | Consuming        969 KiB for k_phase.
  | Number of super-cells (origin) [n_cells]                     :        1521
  | Number of super-cells (after PM_index) [n_cells]             :         170
  | Number of super-cells in hamiltonian [n_cells_in_hamiltonian]:         170
  | Size of matrix packed + index [n_hamiltonian_matrix_size] :      398661

  Initializing relaxation algorithms.
  | Estimated reciprocal-space cutoff momentum G_max:         2.49846848 bohr^-1 .
  | Reciprocal lattice points for long-range Hartree potential:     108
  Partitioning the integration grid into batches with parallel hashing+maxmin method.
  | Number of batches:     1447
  | Maximal batch size:     121
  | Minimal batch size:      51
  | Average batch size:      68.784
  | Standard deviation of batch sizes:      15.288

  Integration load balanced across    24 MPI tasks.
  Work distribution over tasks is as follows:
  Task     0 has       4152 integration points.
  Task     1 has       4185 integration points.
  Task     2 has       4145 integration points.
  Task     3 has       4132 integration points.
  Task     4 has       4188 integration points.
  Task     5 has       4145 integration points.
  Task     6 has       4148 integration points.
  Task     7 has       4148 integration points.
  Task     8 has       4152 integration points.
  Task     9 has       4143 integration points.
  Task    10 has       4146 integration points.
  Task    11 has       4187 integration points.
  Task    12 has       4114 integration points.
  Task    13 has       4110 integration points.
  Task    14 has       4154 integration points.
  Task    15 has       4135 integration points.
  Task    16 has       4137 integration points.
  Task    17 has       4141 integration points.
  Task    18 has       4151 integration points.
  Task    19 has       4196 integration points.
  Task    20 has       4123 integration points.
  Task    21 has       4113 integration points.
  Task    22 has       4147 integration points.
  Task    23 has       4138 integration points.
  Initializing partition tables, free-atom densities, potentials, etc. across the integration grid (initialize_grid_storage).
  | initialize_grid_storage: Actual outermost partition radius vs. multipole_radius_free
  | (-- VB: in principle, multipole_radius_free should be larger, hence this output)
  | Species        1: Confinement radius =              6.000000000000000 AA, multipole_radius_free =              6.043738901464199 AA.
  | Species        1: outer_partition_radius set to              6.043738901464199 AA .
  | Species        2: Confinement radius =              6.000000000000000 AA, multipole_radius_free =              6.037996416842453 AA.
  | Species        2: outer_partition_radius set to              6.037996416842453 AA .
  | The sparse table of interatomic distances needs       1721.65 kbyte instead of      1541.77 kbyte of memory.
  | Using the partition_type stratmann_smoother will reduce your memory usage.
  | Net number of integration points:    99530
  | of which are non-zero points    :    83047
  | Numerical average free-atom electrostatic potential    :    -19.99304492 eV
  Renormalizing the initial density to the exact electron count on the 3D integration grid.
  | Initial density: Formal number of electrons (from input files) :     146.0000000000
  | Integrated number of electrons on 3D grid     :     146.0001295579
  | Charge integration error                      :       0.0001295579
  | Normalization factor for density and gradient :       0.9999991126
  Renormalizing the free-atom superposition density to the exact electron count on the 3D integration grid.
  | Formal number of electrons (from input files) :     146.0000000000
  | Integrated number of electrons on 3D grid     :     146.0001295579
  | Charge integration error                      :       0.0001295579
  | Normalization factor for density and gradient :       0.9999991126
  Obtaining max. number of non-zero basis functions in each batch (get_n_compute_maxes).
  | Maximal number of non-zero basis functions:     1094 in task     0
  | Maximal number of non-zero basis functions:     1071 in task     1
  | Maximal number of non-zero basis functions:     1091 in task     2
  | Maximal number of non-zero basis functions:     1093 in task     3
  | Maximal number of non-zero basis functions:     1084 in task     4
  | Maximal number of non-zero basis functions:     1085 in task     5
  | Maximal number of non-zero basis functions:     1087 in task     6
  | Maximal number of non-zero basis functions:     1089 in task     7
  | Maximal number of non-zero basis functions:     1102 in task     8
  | Maximal number of non-zero basis functions:     1096 in task     9
  | Maximal number of non-zero basis functions:     1103 in task    10
  | Maximal number of non-zero basis functions:     1076 in task    11
  | Maximal number of non-zero basis functions:     1105 in task    12
  | Maximal number of non-zero basis functions:     1096 in task    13
  | Maximal number of non-zero basis functions:     1104 in task    14
  | Maximal number of non-zero basis functions:     1103 in task    15
  | Maximal number of non-zero basis functions:     1093 in task    16
  | Maximal number of non-zero basis functions:     1112 in task    17
  | Maximal number of non-zero basis functions:     1088 in task    18
  | Maximal number of non-zero basis functions:     1087 in task    19
  | Maximal number of non-zero basis functions:     1110 in task    20
  | Maximal number of non-zero basis functions:     1083 in task    21
  | Maximal number of non-zero basis functions:     1082 in task    22
  | Maximal number of non-zero basis functions:     1090 in task    23
  Allocating        2.831 MB for KS_eigenvector_complex
  Integrating Hamiltonian matrix: batch-based integration.
  Time summed over all CPUs for integration: real work       23.256 s, elapsed       23.878 s
  Integrating overlap matrix.
  Time summed over all CPUs for integration: real work       17.561 s, elapsed       18.059 s
  Decreasing sparse matrix size:
  | Tolerance:  0.1000E-12
  Hamiltonian matrix
  | Array has   327141 nonzero elements out of   398661 elements
  | Sparsity factor is 0.179
  Overlap matrix
  | Array has   297400 nonzero elements out of   398661 elements
  | Sparsity factor is 0.254
  New size of hamiltonian matrix:      328106

  Updating Kohn-Sham eigenvalues and eigenvectors using ELSI and the (modified) LAPACK eigensolver.
  Singularity check in k-point 24, task 0 (analysis for other k-points/tasks may follow below):
  Overlap matrix is not singular
  | Lowest and highest eigenvalues :  0.4588E-03,  0.6926E+01
  Finished singularity check of overlap matrix
  | Time :     0.021 s
  Starting LAPACK eigensolver
  Finished Cholesky decomposition
  | Time :     0.020 s
  Finished transformation to standard eigenproblem
  | Time :     0.001 s
  Finished solving standard eigenproblem
  | Time :     0.004 s
  Finished back-transformation of eigenvectors
  | Time :     0.000 s

  Obtaining occupation numbers and chemical potential using ELSI.
  | Chemical potential (Fermi level):    -4.24076831 eV
  Writing Kohn-Sham eigenvalues.
  K-point:       1 at    0.000000    0.000000    0.000000 (in units of recip. lattice)

  State    Occupation    Eigenvalue [Ha]    Eigenvalue [eV]
      1       2.00000       -3153.118057       -85800.70782
      2       2.00000        -515.602065       -14030.24604
      3       2.00000        -466.346662       -12689.93832
      4       2.00000        -466.346662       -12689.93832
      5       2.00000        -445.965474       -12135.33798
      6       2.00000        -445.965472       -12135.33794
      7       2.00000        -445.965468       -12135.33782
      8       2.00000        -119.514332        -3252.15043
      9       2.00000         -99.668677        -2712.12270
     10       2.00000         -99.668677        -2712.12269
     11       2.00000         -99.668636        -2712.12157
     12       2.00000         -78.256940        -2129.47968
     13       2.00000         -78.256940        -2129.47968
     14       2.00000         -78.256916        -2129.47903
     15       2.00000         -78.256916        -2129.47902
     16       2.00000         -78.256907        -2129.47878
     17       2.00000         -59.211841        -1611.23617
     18       2.00000         -59.211841        -1611.23617
     19       2.00000         -52.070337        -1416.90596
     20       2.00000         -52.070337        -1416.90595
     21       2.00000         -52.070337        -1416.90595
     22       2.00000         -52.070337        -1416.90595
     23       2.00000         -52.070324        -1416.90560
     24       2.00000         -52.070324        -1416.90560
     25       2.00000         -25.583157         -696.15313
     26       2.00000         -19.118497         -520.24077
     27       2.00000         -19.118497         -520.24077
     28       2.00000         -19.118261         -520.23435
     29       2.00000         -11.290548         -307.23144
     30       2.00000         -11.290548         -307.23144
     31       2.00000         -11.290358         -307.22627
     32       2.00000         -11.290358         -307.22627
     33       2.00000         -11.290262         -307.22367
     34       2.00000          -7.857867         -213.82345
     35       2.00000          -7.857867         -213.82345
     36       2.00000          -5.631910         -153.25206
     37       2.00000          -5.631910         -153.25206
     38       2.00000          -5.631909         -153.25205
     39       2.00000          -5.631909         -153.25204
     40       2.00000          -5.631742         -153.24750
     41       2.00000          -5.631741         -153.24747
     42       2.00000          -3.756138         -102.20971
     43       2.00000          -2.596198          -70.64614
     44       2.00000          -2.596161          -70.64512
     45       2.00000          -2.596025          -70.64144
     46       2.00000          -2.596025          -70.64144
     47       2.00000          -2.595836          -70.63630
     48       2.00000          -2.595836          -70.63630
     49       2.00000          -2.595759          -70.63419
     50       2.00000          -2.078596          -56.56146
     51       2.00000          -2.078596          -56.56146
     52       2.00000          -2.076485          -56.50404
     53       2.00000          -1.963758          -53.43656
     54       2.00000          -1.963758          -53.43656
     55       2.00000          -1.963507          -53.42974
     56       2.00000          -1.963507          -53.42974
     57       2.00000          -1.963395          -53.42669
     58       2.00000          -1.963395          -53.42669
     59       2.00000          -1.963324          -53.42477
     60       2.00000          -1.963324          -53.42477
     61       2.00000          -1.963270          -53.42330
     62       2.00000          -1.963249          -53.42272
     63       2.00000          -0.751156          -20.43999
     64       2.00000          -0.643173          -17.50162
     65       2.00000          -0.430515          -11.71492
     66       2.00000          -0.379066          -10.31492
     67       2.00000          -0.379066          -10.31491
     68       2.00000          -0.275234           -7.48950
     69       2.00000          -0.275234           -7.48949
     70       2.00000          -0.237290           -6.45698
     71       2.00000          -0.216367           -5.88764
     72       2.00000          -0.216366           -5.88763
     73       0.25529          -0.155550           -4.23272
     74       0.00000          -0.126291           -3.43655
     75       0.00000          -0.126291           -3.43654
     76       0.00000          -0.039633           -1.07848
     77       0.00000          -0.026540           -0.72218
     78       0.00000           0.105495            2.87066
     79       0.00000           0.105500            2.87080
     80       0.00000           0.282692            7.69245
     81       0.00000           0.288302            7.84511
     82       0.00000           0.288307            7.84523
     83       0.00000           0.298943            8.13466
     84       0.00000           0.298959            8.13508
     85       0.00000           0.315880            8.59552
     86       0.00000           0.315882            8.59559
     87       0.00000           0.346398            9.42598
     88       0.00000           0.367947           10.01234
     89       0.00000           0.498205           13.55686
     90       0.00000           0.507305           13.80448
     91       0.00000           0.740812           20.15852
     92       0.00000           0.740813           20.15855
     93       0.00000           0.822559           22.38297

  What follows are estimated values for band gap, HOMO, LUMO, etc.
  | They are estimated on a discrete k-point grid and not necessarily exact.
  | For converged numbers, create a DOS and/or band structure plot on a denser k-grid.

  Highest occupied state (VBM) at     -4.59323035 eV (relative to internal zero)
  | Occupation number:      2.00000000
  | K-point:       5 at    0.000000    0.000000    0.888889 (in units of recip. lattice)

  Lowest unoccupied state (CBM) at    -4.23272422 eV (relative to internal zero)
  | Occupation number:      0.25528501
  | K-point:       1 at    0.000000    0.000000    0.000000 (in units of recip. lattice)

  ESTIMATED overall HOMO-LUMO gap:      0.36050612 eV between HOMO at k-point 5 and LUMO at k-point 1
  | This appears to be an indirect band gap.
  | Smallest direct gap :      0.76533294 eV for k_point 152 at    0.000000    0.000000    0.000000 (in units of recip. lattice)
  However, this system has fractional occupation numbers. Since we use a finite k-point grid,
  this material is metallic within the approximate finite broadening function (occupation_type)
  applied to determine the occupation numbers.
  Calculating total energy contributions from superposition of free atom densities.

  Total energy components:
  | Sum of eigenvalues            :      -14841.57695270 Ha     -403859.85704613 eV
  | XC energy correction          :        -536.20233621 Ha      -14590.80794038 eV
  | XC potential correction       :         700.17960978 Ha       19052.85658091 eV
  | Free-atom electrostatic energy:       -9260.45298218 Ha     -251989.74674230 eV
  | Hartree energy correction     :           0.00000000 Ha           0.00000000 eV
  | vdW energy correction         :           0.00000000 Ha           0.00000000 eV
  | Entropy correction            :          -0.00000071 Ha          -0.00001930 eV
  | ---------------------------
  | Total energy                  :      -23938.05266130 Ha     -651387.55514790 eV
  | Total energy, T -> 0          :      -23938.05266201 Ha     -651387.55516720 eV  <-- do not rely on this value for anything but (periodic) metals
  | Electronic free energy        :      -23938.05266272 Ha     -651387.55518650 eV

  Derived energy quantities:
  | Kinetic energy                :       26293.21060175 Ha      715474.66342373 eV
  | Electrostatic energy          :      -49695.06092684 Ha    -1352271.41063125 eV
  | Energy correction for multipole
  | error in Hartree potential    :           0.00000000 Ha           0.00000000 eV
  | Sum of eigenvalues per atom                           :     -134619.95234871 eV
  | Total energy (T->0) per atom                          :     -217129.18505573 eV  <-- do not rely on this value for anything but (periodic) metals
  | Electronic free energy per atom                       :     -217129.18506217 eV
  Initialize hartree_potential_storage
  Max. number of atoms included in rho_multipole:            3

  End scf initialization - timings             :  max(cpu_time)    wall_clock(cpu1)
  | Time for scf. initialization               :        2.582 s           2.671 s
  | Boundary condition initialization          :        0.076 s           0.091 s
  | Relaxation initialization                  :        0.002 s           0.005 s
  | Integration                                :        1.770 s           1.776 s
  | Solution of K.-S. eqns.                    :        0.222 s           0.251 s
  | Grid partitioning                          :        0.118 s           0.118 s
  | Preloading free-atom quantities on grid    :        0.030 s           0.030 s
  | Free-atom superposition energy             :        0.030 s           0.030 s
  | Total energy evaluation                    :        0.001 s           0.001 s

  Partial memory accounting:
  | Current value for overall tracked memory usage:
  |   Minimum:        9.099 MB (on task  0)
  |   Maximum:        9.288 MB (on task  1)
  |   Average:        9.139 MB
  | Peak value for overall tracked memory usage:
  |   Minimum:       22.283 MB (on task 11 after allocating wave)
  |   Maximum:       22.984 MB (on task 17 after allocating wave)
  |   Average:       22.645 MB
  | Largest tracked array allocation so far:
  |   Minimum:        8.751 MB (hamiltonian_shell on task  1)
  |   Maximum:        9.434 MB (hamiltonian_shell on task 17)
  |   Average:        9.110 MB
  Note:  These values currently only include a subset of arrays which are explicitly tracked.
  The "true" memory usage will be greater.
------------------------------------------------------------

------------------------------------------------------------
          Begin self-consistency iteration #    1

  Date     :  20200402, Time     :  200121.933
------------------------------------------------------------
  Evaluating new KS density using the density matrix
  Evaluating density matrix
  Time summed over all CPUs for getting density from density matrix: real work       41.062 s, elapsed       41.994 s
  Integration grid: deviation in total charge (<rho> - N_e) =   3.632294E-11
  Pulay mixing of updated and previous charge densities.
  Renormalizing the density to the exact electron count on the 3D integration grid.
  | Formal number of electrons (from input files) :     146.0000000000
  | Integrated number of electrons on 3D grid     :     146.0002376944
  | Charge integration error                      :       0.0002376944
  | Normalization factor for density and gradient :       0.9999983720

  Evaluating partitioned Hartree potential by multipole expansion.
  | Original multipole sum: apparent total charge =   0.916573E-14
  | Sum of charges compensated after spline to logarithmic grids =  -0.301079E-09
  | Analytical far-field extrapolation by fixed multipoles:
  | Hartree multipole sum: apparent total charge =   0.915651E-14
  Summing up the Hartree potential.
  Time summed over all CPUs for potential: real work        8.281 s, elapsed        8.450 s
  | RMS charge density error from multipole expansion :   0.282050E-03
  | Average real-space part of the electrostatic potential :     -0.01193819 eV

  Integrating Hamiltonian matrix: batch-based integration.
  Time summed over all CPUs for integration: real work       22.756 s, elapsed       23.317 s

  Updating Kohn-Sham eigenvalues and eigenvectors using ELSI and the (modified) LAPACK eigensolver.
  Starting LAPACK eigensolver
  Finished Cholesky decomposition
  | Time :     0.000 s
  Finished transformation to standard eigenproblem
  | Time :     0.001 s
  Finished solving standard eigenproblem
  | Time :     0.004 s
  Finished back-transformation of eigenvectors
  | Time :     0.000 s

  Obtaining occupation numbers and chemical potential using ELSI.
  | Chemical potential (Fermi level):    -4.33933440 eV
  Writing Kohn-Sham eigenvalues.
  K-point:       1 at    0.000000    0.000000    0.000000 (in units of recip. lattice)

  State    Occupation    Eigenvalue [Ha]    Eigenvalue [eV]
      1       2.00000       -3153.135674       -85801.18720
      2       2.00000        -515.619318       -14030.71552
      3       2.00000        -466.344335       -12689.87500
      4       2.00000        -466.344335       -12689.87500
      5       2.00000        -445.982798       -12135.80938
      6       2.00000        -445.982796       -12135.80935
      7       2.00000        -445.982786       -12135.80908
      8       2.00000        -119.530196        -3252.58213
      9       2.00000         -99.684537        -2712.55426
     10       2.00000         -99.684536        -2712.55424
     11       2.00000         -99.684487        -2712.55291
     12       2.00000         -78.273030        -2129.91751
     13       2.00000         -78.273029        -2129.91750
     14       2.00000         -78.272960        -2129.91562
     15       2.00000         -78.272960        -2129.91562
     16       2.00000         -78.272936        -2129.91495
     17       2.00000         -59.209673        -1611.17717
     18       2.00000         -59.209673        -1611.17717
     19       2.00000         -52.068150        -1416.84646
     20       2.00000         -52.068150        -1416.84646
     21       2.00000         -52.068150        -1416.84646
     22       2.00000         -52.068150        -1416.84646
     23       2.00000         -52.068116        -1416.84553
     24       2.00000         -52.068116        -1416.84553
     25       2.00000         -25.597246         -696.53651
     26       2.00000         -19.132434         -520.62003
     27       2.00000         -19.132434         -520.62003
     28       2.00000         -19.132181         -520.61314
     29       2.00000         -11.304447         -307.60965
     30       2.00000         -11.304447         -307.60965
     31       2.00000         -11.304111         -307.60052
     32       2.00000         -11.304111         -307.60052
     33       2.00000         -11.303951         -307.59617
     34       2.00000          -7.855953         -213.77136
     35       2.00000          -7.855953         -213.77136
     36       2.00000          -5.630018         -153.20059
     37       2.00000          -5.630018         -153.20059
     38       2.00000          -5.630018         -153.20058
     39       2.00000          -5.630018         -153.20058
     40       2.00000          -5.629783         -153.19418
     41       2.00000          -5.629782         -153.19415
     42       2.00000          -3.767086         -102.50762
     43       2.00000          -2.609782          -71.01579
     44       2.00000          -2.609646          -71.01208
     45       2.00000          -2.609635          -71.01179
     46       2.00000          -2.609635          -71.01179
     47       2.00000          -2.609307          -71.00287
     48       2.00000          -2.609307          -71.00287
     49       2.00000          -2.609089          -70.99693
     50       2.00000          -2.088425          -56.82893
     51       2.00000          -2.088425          -56.82893
     52       2.00000          -2.086291          -56.77087
     53       2.00000          -1.961860          -53.38494
     54       2.00000          -1.961860          -53.38494
     55       2.00000          -1.961641          -53.37897
     56       2.00000          -1.961641          -53.37897
     57       2.00000          -1.961499          -53.37509
     58       2.00000          -1.961499          -53.37509
     59       2.00000          -1.961409          -53.37265
     60       2.00000          -1.961409          -53.37265
     61       2.00000          -1.961336          -53.37067
     62       2.00000          -1.961313          -53.37004
     63       2.00000          -0.750452          -20.42083
     64       2.00000          -0.642137          -17.47342
     65       2.00000          -0.430891          -11.72514
     66       2.00000          -0.382007          -10.39494
     67       2.00000          -0.382007          -10.39493
     68       2.00000          -0.281186           -7.65147
     69       2.00000          -0.281186           -7.65146
     70       2.00000          -0.242147           -6.58915
     71       2.00000          -0.215717           -5.86995
     72       2.00000          -0.215716           -5.86994
     73       0.00000          -0.154279           -4.19814
     74       0.00000          -0.128415           -3.49434
     75       0.00000          -0.128415           -3.49434
     76       0.00000          -0.039702           -1.08035
     77       0.00000          -0.027427           -0.74633
     78       0.00000           0.104934            2.85539
     79       0.00000           0.104939            2.85553
     80       0.00000           0.281366            7.65635
     81       0.00000           0.287396            7.82045
     82       0.00000           0.287401            7.82057
     83       0.00000           0.298811            8.13107
     84       0.00000           0.298827            8.13150
     85       0.00000           0.314588            8.56038
     86       0.00000           0.314590            8.56044
     87       0.00000           0.345925            9.41311
     88       0.00000           0.366899            9.98383
     89       0.00000           0.498709           13.57057
     90       0.00000           0.507323           13.80496
     91       0.00000           0.740482           20.14955
     92       0.00000           0.740483           20.14958
     93       0.00000           0.822752           22.38823

  What follows are estimated values for band gap, HOMO, LUMO, etc.
  | They are estimated on a discrete k-point grid and not necessarily exact.
  | For converged numbers, create a DOS and/or band structure plot on a denser k-grid.

  Highest occupied state (VBM) at     -4.56249707 eV (relative to internal zero)
  | Occupation number:      2.00000000
  | K-point:       5 at    0.000000    0.000000    0.888889 (in units of recip. lattice)

  Lowest unoccupied state (CBM) at    -4.33168611 eV (relative to internal zero)
  | Occupation number:      0.27941644
  | K-point:     305 at    0.666667    0.000000    0.222222 (in units of recip. lattice)

  ESTIMATED overall HOMO-LUMO gap:      0.23081095 eV between HOMO at k-point 5 and LUMO at k-point 305
  | This appears to be an indirect band gap.
  | Smallest direct gap :      0.74129229 eV for k_point 152 at    0.666667    0.000000    0.222222 (in units of recip. lattice)
  However, this system has fractional occupation numbers. Since we use a finite k-point grid,
  this material is metallic within the approximate finite broadening function (occupation_type)
  applied to determine the occupation numbers.

  Total energy components:
  | Sum of eigenvalues            :      -14842.48548591 Ha     -403884.57949274 eV
  | XC energy correction          :        -536.18226007 Ha      -14590.26164079 eV
  | XC potential correction       :         700.15334994 Ha       19052.14201411 eV
  | Free-atom electrostatic energy:       -9260.45298218 Ha     -251989.74674230 eV
  | Hartree energy correction     :           0.92158440 Ha          25.07758746 eV
  | vdW energy correction         :           0.00000000 Ha           0.00000000 eV
  | Entropy correction            :          -0.00000062 Ha          -0.00001692 eV
  | ---------------------------
  | Total energy                  :      -23938.04579382 Ha     -651387.36827426 eV
  | Total energy, T -> 0          :      -23938.04579444 Ha     -651387.36829117 eV  <-- do not rely on this value for anything but (periodic) metals
  | Electronic free energy        :      -23938.04579506 Ha     -651387.36830809 eV

  Derived energy quantities:
  | Kinetic energy                :       26292.89116974 Ha      715465.97123641 eV
  | Electrostatic energy          :      -49694.75470349 Ha    -1352263.07786988 eV
  | Energy correction for multipole
  | error in Hartree potential    :           0.00004614 Ha           0.00125562 eV
  | Sum of eigenvalues per atom                           :     -134628.19316425 eV
  | Total energy (T->0) per atom                          :     -217129.12276372 eV  <-- do not rely on this value for anything but (periodic) metals
  | Electronic free energy per atom                       :     -217129.12276936 eV

  Self-consistency convergence accuracy:
  | Change of charge density      :  0.2651E+00
  | Change of sum of eigenvalues  : -0.2472E+02 eV
  | Change of total energy        :  0.1869E+00 eV

  End self-consistency iteration #     1       :  max(cpu_time)    wall_clock(cpu1)
  | Time for this iteration                    :        3.496 s           3.497 s
  | Charge density update                      :        1.800 s           1.800 s
  | Density mixing & preconditioning           :        0.175 s           0.175 s
  | Hartree multipole update                   :        0.002 s           0.002 s
  | Hartree multipole summation                :        0.366 s           0.367 s
  | Integration                                :        0.983 s           0.983 s
  | Solution of K.-S. eqns.                    :        0.167 s           0.167 s
  | Total energy evaluation                    :        0.001 s           0.001 s

  Partial memory accounting:
  | Current value for overall tracked memory usage:
  |   Minimum:        9.099 MB (on task  0)
  |   Maximum:        9.288 MB (on task  1)
  |   Average:        9.139 MB
  | Peak value for overall tracked memory usage:
  |   Minimum:       23.893 MB (on task 11 after allocating gradient_basis_wave)
  |   Maximum:       24.693 MB (on task 17 after allocating gradient_basis_wave)
  |   Average:       24.301 MB
  | Largest tracked array allocation so far:
  |   Minimum:        8.751 MB (hamiltonian_shell on task  1)
  |   Maximum:        9.434 MB (hamiltonian_shell on task 17)
  |   Average:        9.110 MB
  Note:  These values currently only include a subset of arrays which are explicitly tracked.
  The "true" memory usage will be greater.
------------------------------------------------------------

------------------------------------------------------------
          Begin self-consistency iteration #    2

  Date     :  20200402, Time     :  200125.432
------------------------------------------------------------
  Evaluating new KS density using the density matrix
  Evaluating density matrix
  Time summed over all CPUs for getting density from density matrix: real work       40.956 s, elapsed       41.982 s
  Integration grid: deviation in total charge (<rho> - N_e) =   3.618084E-11
  Pulay mixing of updated and previous charge densities.
  Renormalizing the density to the exact electron count on the 3D integration grid.
  | Formal number of electrons (from input files) :     146.0000000000
  | Integrated number of electrons on 3D grid     :     146.0014601898
  | Charge integration error                      :       0.0014601898
  | Normalization factor for density and gradient :       0.9999899988

  Evaluating partitioned Hartree potential by multipole expansion.
  | Original multipole sum: apparent total charge =  -0.714011E-13
  | Sum of charges compensated after spline to logarithmic grids =  -0.144773E-07
  | Analytical far-field extrapolation by fixed multipoles:
  | Hartree multipole sum: apparent total charge =  -0.716286E-13
  Summing up the Hartree potential.
  Time summed over all CPUs for potential: real work        9.324 s, elapsed       10.492 s
  | RMS charge density error from multipole expansion :   0.228049E-02
  | Average real-space part of the electrostatic potential :     -0.09049161 eV

  Integrating Hamiltonian matrix: batch-based integration.
  Time summed over all CPUs for integration: real work       22.740 s, elapsed       23.283 s

  Updating Kohn-Sham eigenvalues and eigenvectors using ELSI and the (modified) LAPACK eigensolver.
  Starting LAPACK eigensolver
  Finished Cholesky decomposition
  | Time :     0.000 s
  Finished transformation to standard eigenproblem
  | Time :     0.001 s
  Finished solving standard eigenproblem
  | Time :     0.003 s
  Finished back-transformation of eigenvectors
  | Time :     0.000 s

  Obtaining occupation numbers and chemical potential using ELSI.
  | Chemical potential (Fermi level):    -4.86459909 eV
  What follows are estimated values for band gap, HOMO, LUMO, etc.
  | They are estimated on a discrete k-point grid and not necessarily exact.
  | For converged numbers, create a DOS and/or band structure plot on a denser k-grid.

  Highest occupied state (VBM) at     -4.87055895 eV (relative to internal zero)
  | Occupation number:      1.60068824
  | K-point:      21 at    0.000000    0.333333    0.222222 (in units of recip. lattice)

  Lowest unoccupied state (CBM) at    -4.85159413 eV (relative to internal zero)
  | Occupation number:      0.06588891
  | K-point:     168 at    0.333333    0.000000    0.666667 (in units of recip. lattice)

  ESTIMATED overall HOMO-LUMO gap:      0.01896481 eV between HOMO at k-point 21 and LUMO at k-point 168
  | This appears to be an indirect band gap.
  | Smallest direct gap :      0.37214782 eV for k_point 36 at    0.333333    0.000000    0.666667 (in units of recip. lattice)
  However, this system has fractional occupation numbers. Since we use a finite k-point grid,
  this material is metallic within the approximate finite broadening function (occupation_type)
  applied to determine the occupation numbers.

  Total energy components:
  | Sum of eigenvalues            :      -14848.27307173 Ha     -404042.06771573 eV
  | XC energy correction          :        -536.05579715 Ha      -14586.82040983 eV
  | XC potential correction       :         699.98759434 Ha       19047.63157490 eV
  | Free-atom electrostatic energy:       -9260.45298218 Ha     -251989.74674230 eV
  | Hartree energy correction     :           6.76504861 Ha         184.08633882 eV
  | vdW energy correction         :           0.00000000 Ha           0.00000000 eV
  | Entropy correction            :          -0.00000076 Ha          -0.00002055 eV
  | ---------------------------
  | Total energy                  :      -23938.02920811 Ha     -651386.91695414 eV
  | Total energy, T -> 0          :      -23938.02920887 Ha     -651386.91697469 eV  <-- do not rely on this value for anything but (periodic) metals
  | Electronic free energy        :      -23938.02920962 Ha     -651386.91699524 eV

  Derived energy quantities:
  | Kinetic energy                :       26290.90906962 Ha      715412.03554803 eV
  | Electrostatic energy          :      -49692.88248058 Ha    -1352212.13209234 eV
  | Energy correction for multipole
  | error in Hartree potential    :           0.00039302 Ha           0.01069450 eV
  | Sum of eigenvalues per atom                           :     -134680.68923858 eV
  | Total energy (T->0) per atom                          :     -217128.97232490 eV  <-- do not rely on this value for anything but (periodic) metals
  | Electronic free energy per atom                       :     -217128.97233175 eV

  Self-consistency convergence accuracy:
  | Change of charge density      :  0.2345E+00
  | Change of sum of eigenvalues  : -0.1575E+03 eV
  | Change of total energy        :  0.4513E+00 eV

  End self-consistency iteration #     2       :  max(cpu_time)    wall_clock(cpu1)
  | Time for this iteration                    :        3.548 s           3.548 s
  | Charge density update                      :        1.798 s           1.798 s
  | Density mixing & preconditioning           :        0.146 s           0.146 s
  | Hartree multipole update                   :        0.002 s           0.002 s
  | Hartree multipole summation                :        0.452 s           0.452 s
  | Integration                                :        0.981 s           0.982 s
  | Solution of K.-S. eqns.                    :        0.167 s           0.167 s
  | Total energy evaluation                    :        0.001 s           0.001 s

  Partial memory accounting:
  | Current value for overall tracked memory usage:
  |   Minimum:        9.100 MB (on task  0)
  |   Maximum:        9.289 MB (on task  1)
  |   Average:        9.139 MB
  | Peak value for overall tracked memory usage:
  |   Minimum:       23.893 MB (on task 11 after allocating gradient_basis_wave)
  |   Maximum:       24.693 MB (on task 17 after allocating gradient_basis_wave)
  |   Average:       24.301 MB
  | Largest tracked array allocation so far:
  |   Minimum:        8.751 MB (hamiltonian_shell on task  1)
  |   Maximum:        9.434 MB (hamiltonian_shell on task 17)
  |   Average:        9.110 MB
  Note:  These values currently only include a subset of arrays which are explicitly tracked.
  The "true" memory usage will be greater.
------------------------------------------------------------

------------------------------------------------------------
[...]
  The "true" memory usage will be greater.
------------------------------------------------------------
  Obtaining max. number of non-zero basis functions in each batch .
  Evaluating KS electron density on previously omitted grid points, using the density matrix.
  Evaluating density matrix

  Entering Libmbd.
  Libmbd: VdW method: mbd-nl
  Libmbd: Evaluating kinetic energy density...

  Evaluating density matrix

  Libmbd: Performing Hirshfeld analysis...
  Libmbd: Calculating MBD energy...
  Libmbd: Evaluated energy: -0.29413223101729571E-001

  Total energy components:
  | Sum of eigenvalues            :      -14847.39223551 Ha     -404018.09894291 eV
  | XC energy correction          :        -536.08239665 Ha      -14587.54421902 eV
  | XC potential correction       :         700.02020405 Ha       19048.51893025 eV
  | Free-atom electrostatic energy:       -9260.38047107 Ha     -251987.77361471 eV
  | Hartree energy correction     :           5.80644724 Ha         158.00146849 eV
  | vdW energy correction         :          -0.02941322 Ha          -0.80037452 eV
  | Entropy correction            :          -0.00002386 Ha          -0.00064926 eV
  | ---------------------------
  | Total energy                  :      -23938.05786517 Ha     -651387.69675242 eV
  | Total energy, T -> 0          :      -23938.05788903 Ha     -651387.69740168 eV  <-- do not rely on this value for anything but (periodic) metals
  | Electronic free energy        :      -23938.05791289 Ha     -651387.69805094 eV

  Derived energy quantities:
  | Kinetic energy                :       26292.80821462 Ha      715463.71391286 eV
  | Electrostatic energy          :      -49694.75426992 Ha    -1352263.06607174 eV
  | Energy correction for multipole
  | error in Hartree potential    :           0.00056989 Ha           0.01550756 eV
  | Sum of eigenvalues per atom                           :     -134672.69964764 eV
  | Total energy (T->0) per atom                          :     -217129.23246723 eV  <-- do not rely on this value for anything but (periodic) metals
  | Electronic free energy per atom                       :     -217129.23268365 eV

  atomic forces [eV/Ang]:
  -----------------------
  atom #    1
   Hellmann-Feynman              :  0.117116E+00  0.125970E+00 -0.969832E-02
   Ionic forces                  :  0.000000E+00  0.000000E+00  0.000000E+00
   Multipole                     : -0.213476E-03 -0.238931E-03  0.118310E-04
   Pulay + GGA                   : -0.110601E+00 -0.118919E+00  0.927109E-02
   Van der Waals                 : -0.219965E-04 -0.236865E-04  0.138231E-05
   ----------------------------------------------------------------
   Total forces(   1)            :  0.627969E-02  0.678747E-02 -0.414009E-03
  atom #    2
   Hellmann-Feynman              : -0.472005E-01  0.299163E-01  0.486587E+02
   Ionic forces                  :  0.000000E+00  0.000000E+00  0.000000E+00
   Multipole                     : -0.249158E-04  0.145517E-03 -0.263852E-01
   Pulay + GGA                   :  0.404508E-01 -0.273999E-01 -0.486448E+02
   Van der Waals                 : -0.237731E-04  0.412054E-04  0.148607E-01
   ----------------------------------------------------------------
   Total forces(   2)            : -0.679838E-02  0.270314E-02  0.238910E-02
  atom #    3
   Hellmann-Feynman              :  0.133769E-01 -0.663051E-01 -0.486552E+02
   Ionic forces                  :  0.000000E+00  0.000000E+00  0.000000E+00
   Multipole                     : -0.100761E-04 -0.180702E-03  0.263758E-01
   Pulay + GGA                   : -0.128009E-01  0.571325E-01  0.486418E+02
   Van der Waals                 :  0.457695E-04 -0.175189E-04 -0.148621E-01
   ----------------------------------------------------------------
   Total forces(   3)            :  0.611699E-03 -0.937077E-02 -0.190419E-02


  Analytical stress tensor components [eV]         xx                  yy                  zz                  xy                  xz                  yz
  -----------------------------------------------------------------------------------------------------------------------------------------------------------
    Nuclear Hellmann-Feynman      :    -0.2753892328E+02   -0.2768913778E+02   -0.2013524277E+02   -0.4239784475E-01    0.4166193803E-01   -0.6611557809E-01
    Multipole Hellmann-Feynman    :    -0.1005836109E+03   -0.1008358386E+03   -0.7901872595E+02   -0.7413165782E-01    0.6817984120E-01   -0.1139559007E+00
    On-site Multipole corrections :    -0.6338517639E+01   -0.6338384863E+01   -0.6338648355E+01   -0.1097724598E-06   -0.1321204546E-06    0.7913033951E-05
    Strain deriv. of the orbitals :     0.1335917447E+03    0.1339810440E+03    0.1046482991E+03    0.1126898265E+00   -0.1015947000E+00    0.1664621838E+00
    vdW correction   :     0.8479250429E+00    0.8483045492E+00    0.8258504518E+00    0.2641115405E-03    0.7092647098E-04   -0.4647735302E-05
  -----------------------------------------------------------------------------------------------------------------------------------------------------------
  Sum of all contributions        :    -0.2138204122E-01   -0.3401264632E-01   -0.1846756792E-01   -0.3575674249E-02    0.8317873558E-02   -0.1360602967E-01

  +-------------------------------------------------------------------+
  |              Analytical stress tensor - Symmetrized               |
  |                  Cartesian components [eV/A**3]                   |
  +-------------------------------------------------------------------+
  |                x                y                z                |
  |                                                                   |
  |  x        -0.00034976      -0.00005849       0.00013606           |
  |  y        -0.00005849      -0.00055637      -0.00022256           |
  |  z         0.00013606      -0.00022256      -0.00030209           |
  |                                                                   |
  |  Pressure:       0.00040274   [eV/A**3]                           |
  |                                                                   |
  +-------------------------------------------------------------------+

 * Warning: Stress tensor is anisotropic. Be aware that pressure is an isotropic quantity.


  Leaving Libmbd.

  Timings for VdW correction (Tkatchenko-Scheffler 2009 or later):
  | CPU time:        2.814 s, Wall clock time:        2.815 s.
  Removing unitary transformations (pure translations, rotations) from forces on atoms.
  Atomic forces before filtering:
  | Net force on center of mass :   0.930149E-04  0.119840E-03  0.708989E-04 eV/A
  Atomic forces after filtering:
  | Net force on center of mass :   0.696899E-18  0.000000E+00  0.000000E+00 eV/A

  Energy and forces in a compact form:
  | Total energy uncorrected      :         -0.651387696752423E+06 eV
  | Total energy corrected        :         -0.651387697401684E+06 eV  <-- do not rely on this value for anything but (periodic) metals
  | Electronic free energy        :         -0.651387698050945E+06 eV
  Total atomic forces (unitary forces cleaned) [eV/Ang]:
  |    1          0.624868658634746E-02          0.674752702410698E-02         -0.437642199841006E-03
  |    2         -0.682938101761958E-02          0.266318908057919E-02          0.236546710110987E-02
  |    3          0.580694431272125E-03         -0.941071610468618E-02         -0.192782490126886E-02

  ------------------------------------ 
  Start decomposition of the XC Energy 
  ------------------------------------ 
  X and C from original XC functional choice 
  Hartree-Fock Energy :          0.000000000 Ha              0.000000000 eV
  X Energy            :       -527.916651453 Ha         -14365.342986640 eV
  C Energy            :         -8.165745201 Ha           -222.201232382 eV
  Total XC Energy     :       -536.082396654 Ha         -14587.544219021 eV
  ------------------------------------ 
  LDA X and C from self-consistent density 
  X Energy LDA        :       -504.543016091 Ha         -13729.314007633 eV
  C Energy LDA        :        -14.316379798 Ha           -389.568515342 eV
  ------------------------------------ 
  End decomposition of the XC Energy 
  ------------------------------------ 

------------------------------------------------------------
  Relaxation / MD: End force evaluation.       :  max(cpu_time)    wall_clock(cpu1)
  | Time for this force evaluation             :       93.926 s          94.013 s

------------------------------------------------------------
  Geometry optimization: Attempting to predict improved coordinates.

  +-------------------------------------------------------------------+
  | Generalized derivatives on lattice vectors [eV/A]                 |
  +-------------------------------------------------------------------+
  |lattice_vector      -0.00620401      -0.00614220       0.00012236  |
  |lattice_vector      -0.00109250      -0.01039213      -0.00415715  |
  |lattice_vector       0.00168297      -0.00275293      -0.00373658  |
  +-------------------------------------------------------------------+
  | Forces on lattice vectors cleaned from atomic contributions [eV/A]|
  +-------------------------------------------------------------------+
  |lattice_vector       0.00620401       0.00614220      -0.00012236  |
  |lattice_vector       0.00109250       0.01039213       0.00415715  |
  |lattice_vector      -0.00168297       0.00275293       0.00373658  |
  +-------------------------------------------------------------------+
  Symmetrized total atomic cartesian forces [eV/Ang]:
  |   1     0.6248686586E-02     0.6747527024E-02    -0.4376421998E-03
  |   2    -0.6829381018E-02     0.2663189081E-02     0.2365467101E-02
  |   3     0.5806944313E-03    -0.9410716105E-02    -0.1927824901E-02
  +-------------------------------------------------------------------+
  | Symmetrized forces on lattice vectors cleaned from symmetrized
  | atomic contributions [eV/A]|
  +-------------------------------------------------------------------+
  |lattice_vector       0.00732880       0.00000000       0.00000000  |
  |lattice_vector      -0.00366440       0.00634693       0.00000000  |
  |lattice_vector       0.00000000       0.00000000       0.00373658  |
  +-------------------------------------------------------------------+
  Removing unitary transformations (pure translations, rotations) from forces on atoms.
  Atomic forces before filtering:
  | Net force on center of mass :   0.000000E+00  0.139380E-17  0.000000E+00 eV/A
  Atomic forces after filtering:
  | Net force on center of mass :   0.000000E+00  0.139380E-17  0.000000E+00 eV/A
  Net remaining forces (excluding translations, rotations) in present geometry:
  || Forces on atoms   || =   0.941072E-02 eV/A.
  || Forces on lattice || =   0.732880E-02 eV/A^3.
  Maximum force component is  0.941072E-02 eV/A.
  Present geometry is converged.

  Symmetry-reduced parameters:
  | atomic   1         -0.366464949995142E-03
  | atomic   2         -0.337110420541498E-03
  | atomic   3         -0.236846200017363E-03
  | atomic   4          0.333161206471806E+00
  | atomic   5          0.666217945392707E+00
  | atomic   6          0.260348914130170E+00
  | atomic   7          0.666481687501732E+00
  | atomic   8          0.333395591412630E+00
  | atomic   9          0.739164358454644E+00
  | lattice  1          0.377924514366944E+01
  | lattice  2          0.494237721528561E+01
  Symmetry-reduced forces:
  | atomic   1          0.236153184357660E-01
  | atomic   2          0.102764724596058E-01
  | atomic   3         -0.216299283694166E-02
  | atomic   4         -0.258099050451071E-01
  | atomic   5          0.216213634576168E-01
  | atomic   6          0.116910307040331E-01
  | atomic   7          0.219458660934106E-02
  | atomic   8         -0.318978359172227E-01
  | atomic   9         -0.952803786709146E-02
  | lattice  1          0.146576063297766E-01
  | lattice  2          0.373657596692161E-02
------------------------------------------------------------
  Final atomic structure:
                         x [A]             y [A]             z [A]
  lattice_vector         3.77924514        0.00000000        0.00000000
  lattice_vector        -1.88962257        3.27292230        0.00000000
  lattice_vector         0.00000000        0.00000000        4.94237722

            atom        -0.00074795       -0.00110334       -0.00117058  Pt
            atom         1.88981998       -1.09244273        1.28674254  Se
            atom        -1.89043930        1.09117787       -1.28914813  Se

  Fractional coordinates:
                         L1                L2                L3
       atom_frac        -0.00036646       -0.00033711       -0.00023685  Pt
       atom_frac         0.33316121       -0.33378205        0.26034891  Se
       atom_frac        -0.33351831        0.33339559       -0.26083564  Se
------------------------------------------------------------

------------------------------------------------------------------------------
  Final output of selected total energy values:

  The following output summarizes some interesting total energy values
  at the end of a run (AFTER all relaxation, molecular dynamics, etc.).

  | Total energy of the DFT / Hartree-Fock s.c.f. calculation      :        -651387.696752423 eV
  | Final zero-broadening corrected energy (caution - metals only) :        -651387.697401684 eV
  | For reference only, the value of 1 Hartree used in FHI-aims is :             27.211384500 eV
  | For reference only, the overall average (free atom contribution
  | + realspace contribution) of the electrostatic potential after
  | s.c.f. convergence is                                          :            -19.868303668 eV

  Before relying on these values, please be sure to understand exactly which
  total energy value is referred to by a given number. Different objects may
  all carry the same name 'total energy'. Definitions:

  Total energy of the DFT / Hartree-Fock s.c.f. calculation:
  | Note that this energy does not include ANY quantities calculated after the
  | s.c.f. cycle, in particular not ANY RPA, MP2, etc. many-body perturbation terms.

  Final zero-broadening corrected energy:
  | For metallic systems only, a broadening of the occupation numbers at the Fermi
  | level can be extrapolated back to zero broadening by an electron-gas inspired
  | formula. For all systems that are not real metals, this value can be
  | meaningless and should be avoided.

------------------------------------------------------------------------------
  Methods described in the following list of references were used in this FHI-aims run.
  If you publish the results, please make sure to cite these reference if they apply.
  FHI-aims is an academic code, and for our developers (often, Ph.D. students
  and postdocs), scientific credit in the community is essential.
  Thank you for helping us!

  For any use of FHI-aims, please cite:

    Volker Blum, Ralf Gehrke, Felix Hanke, Paula Havu, Ville Havu,
    Xinguo Ren, Karsten Reuter, and Matthias Scheffler
    'Ab initio molecular simulations with numeric atom-centered orbitals'
    Computer Physics Communications 180, 2175-2196 (2009)
    http://dx.doi.org/10.1016/j.cpc.2009.06.022


  For the analytical stress tensor used in your run, please cite:

    Franz Knuth, Christian Carbogno, Viktor Atalla, Volker Blum, Matthias Scheffler
    'All-electron formalism for total energy strain derivatives and
    stress tensor components for numeric atom-centered orbitals'
    Computer Physics Communications 190, 33-50 (2015).
    http://dx.doi.org/10.1016/j.cpc.2015.01.003


  The provided symmetry information was generated with SPGlib:

    Atsushi Togo, Yusuke Seto, Dimitar Pashov
    SPGlib 1.7.3 obtained from http://spglib.sourceforge.net
    Copyright (C) 2008 Atsushi Togo


  The ELSI infrastructure was used in your run to solve the Kohn-Sham electronic structure.
  Please check out http://elsi-interchange.org to learn more.
  If scalability is important for your project, please acknowledge ELSI by citing:

    V. W-z. Yu, F. Corsetti, A. Garcia, W. P. Huhn, M. Jacquelin, W. Jia,
    B. Lange, L. Lin, J. Lu, W. Mi, A. Seifitokaldani, A. Vazquez-Mayagoitia,
    C. Yang, H. Yang, and V. Blum
    'ELSI: A unified software interface for Kohn-Sham electronic structure solvers'
    Computer Physics Communications 222, 267-285 (2018).
    http://dx.doi.org/10.1016/j.cpc.2017.09.007


  For the real-space grid partitioning and parallelization used in this calculation, please cite:

    Ville Havu, Volker Blum, Paula Havu, and Matthias Scheffler,
    'Efficient O(N) integration for all-electron electronic structure calculation'
    'using numerically tabulated basis functions'
    Journal of Computational Physics 228, 8367-8379 (2009).
    http://dx.doi.org/10.1016/j.jcp.2009.08.008

  Of course, there are many other important community references, e.g., those cited in the
  above references. Our list is limited to references that describe implementations in the
  FHI-aims code. The reason is purely practical (length of this list) - please credit others as well.

------------------------------------------------------------
          Leaving FHI-aims.
          Date     :  20200402, Time     :  202225.650

          Computational steps:
          | Number of self-consistency cycles          :          189
          | Number of SCF (re)initializations          :           12
          | Number of relaxation steps                 :           11

          Detailed time accounting                     :  max(cpu_time)    wall_clock(cpu1)
          | Total time                                 :     1266.975 s        1267.580 s
          | Preparation time                           :        0.662 s           0.717 s
          | Boundary condition initalization           :        0.843 s           0.852 s
          | Grid partitioning                          :        1.545 s           1.545 s
          | Preloading free-atom quantities on grid    :        3.378 s           3.379 s
          | Free-atom superposition energy             :        0.364 s           0.363 s
          | Total time for integrations                :      195.403 s         195.391 s
          | Total time for solution of K.-S. equations :       32.315 s          32.387 s
          | Total time for EV reorthonormalization     :        0.504 s           0.479 s
          | Total time for density & force components  :      854.739 s         854.790 s
          | Total time for mixing & preconditioning    :       24.838 s          24.844 s
          | Total time for Hartree multipole update    :        0.464 s           0.466 s
          | Total time for Hartree multipole sum       :      115.874 s         115.897 s
          | Total time for total energy evaluation     :        0.215 s           0.237 s
          | Total time for scaled ZORA corrections     :        0.000 s           0.000 s
          | Total time for vdW correction              :       34.304 s          34.312 s

          Partial memory accounting:
          | Residual value for overall tracked memory usage across tasks:     0.000000 MB (should be 0.000000 MB)
          | Peak values for overall tracked memory usage:
          |   Minimum:       41.317 MB (on task 14 after allocating d_wave)
          |   Maximum:       43.135 MB (on task  4 after allocating d_wave)
          |   Average:       41.941 MB
          | Largest tracked array allocation:
          |   Minimum:        9.198 MB (density_matrix_con on task 21)
          |   Maximum:        9.828 MB (density_matrix_con on task 23)
          |   Average:        9.415 MB
          Note:  These values currently only include a subset of arrays which are explicitly tracked.
          The "true" memory usage will be greater.

          Have a nice day.
------------------------------------------------------------
