------------------------------------------------------------
          Invoking FHI-aims ...

          When using FHI-aims, please cite the following reference:

          Volker Blum, Ralf Gehrke, Felix Hanke, Paula Havu,
          Ville Havu, Xinguo Ren, Karsten Reuter, and Matthias Scheffler,
          'Ab Initio Molecular Simulations with Numeric Atom-Centered Orbitals',
          Computer Physics Communications 180, 2175-2196 (2009)

          For any questions about FHI-aims, please visit the aimsclub website
          with its forums and wiki. Contributions to both the forums and the
          wiki are warmly encouraged - they are for you, and everyone is welcome there.

------------------------------------------------------------



  Date     :  20200319, Time     :  194126.782
  Time zero on CPU 1             :   0.100810000000000E+00  s.
  Internal wall clock time zero  :           353878886.782  s.

  FHI-aims created a unique identifier for this run for later identification
  aims_uuid : 1548DFEC-06DF-4199-AACA-DDA8C71AC339

  Build configuration of the current instance of FHI-aims
  -------------------------------------------------------
  FHI-aims version      : 200112
  Commit number         : 23daeca3f
  CMake host system     : Linux-3.10.0-693.21.1.el7.x86_64
  CMake version         : 3.13.3
  Fortran compiler      : /sw/installed/impi/2018.4.274-iccifort-2019.1.144-GCC-8.2.0-2.31.1/bin64/mpiifort (Intel) version 19.0.0.20181018
  Fortran compiler flags: -O3 -ip -fp-model precise
  C compiler            : /sw/installed/impi/2018.4.274-iccifort-2019.1.144-GCC-8.2.0-2.31.1/bin64/mpiicc (Intel) version 19.0.0.20181018
  C compiler flags      : -O3 -ip -fp-model precise
  Architecture          :
  Using MPI
  Using Scalapack
  Using C files
  Using LibXC
  Using SPGlib
  Using i-PI
  Using RLSY
  Linking against: /sw/installed/imkl/2019.1.144-iimpi-2019a/mkl/lib/intel64/libmkl_intel_lp64.so
                   /sw/installed/imkl/2019.1.144-iimpi-2019a/mkl/lib/intel64/libmkl_sequential.so
                   /sw/installed/imkl/2019.1.144-iimpi-2019a/mkl/lib/intel64/libmkl_core.so
                   /sw/installed/imkl/2019.1.144-iimpi-2019a/mkl/lib/intel64/libmkl_blacs_intelmpi_lp64.so
                   /sw/installed/imkl/2019.1.144-iimpi-2019a/mkl/lib/intel64/libmkl_scalapack_lp64.so

  Using       24 parallel tasks.
  Task        0 on host taurusi6257.taurus.hrsk.tu-dresden.de reporting.
  Task        1 on host taurusi6257.taurus.hrsk.tu-dresden.de reporting.
  Task        2 on host taurusi6257.taurus.hrsk.tu-dresden.de reporting.
  Task        3 on host taurusi6257.taurus.hrsk.tu-dresden.de reporting.
  Task        4 on host taurusi6257.taurus.hrsk.tu-dresden.de reporting.
  Task        5 on host taurusi6257.taurus.hrsk.tu-dresden.de reporting.
  Task        6 on host taurusi6257.taurus.hrsk.tu-dresden.de reporting.
  Task        7 on host taurusi6257.taurus.hrsk.tu-dresden.de reporting.
  Task        8 on host taurusi6257.taurus.hrsk.tu-dresden.de reporting.
  Task        9 on host taurusi6257.taurus.hrsk.tu-dresden.de reporting.
  Task       10 on host taurusi6257.taurus.hrsk.tu-dresden.de reporting.
  Task       11 on host taurusi6257.taurus.hrsk.tu-dresden.de reporting.
  Task       12 on host taurusi6257.taurus.hrsk.tu-dresden.de reporting.
  Task       13 on host taurusi6257.taurus.hrsk.tu-dresden.de reporting.
  Task       14 on host taurusi6257.taurus.hrsk.tu-dresden.de reporting.
  Task       15 on host taurusi6257.taurus.hrsk.tu-dresden.de reporting.
  Task       16 on host taurusi6257.taurus.hrsk.tu-dresden.de reporting.
  Task       17 on host taurusi6257.taurus.hrsk.tu-dresden.de reporting.
  Task       18 on host taurusi6257.taurus.hrsk.tu-dresden.de reporting.
  Task       19 on host taurusi6257.taurus.hrsk.tu-dresden.de reporting.
  Task       20 on host taurusi6257.taurus.hrsk.tu-dresden.de reporting.
  Task       21 on host taurusi6257.taurus.hrsk.tu-dresden.de reporting.
  Task       22 on host taurusi6257.taurus.hrsk.tu-dresden.de reporting.
  Task       23 on host taurusi6257.taurus.hrsk.tu-dresden.de reporting.

  Performing system and environment tests:
  | Environment variable OMP_NUM_THREADS correctly set to 1.
  | Maximum stacksize for task 0: unlimited
  | Maximum stacksize for task 1: unlimited
  | Maximum stacksize for task 2: unlimited
  | Maximum stacksize for task 3: unlimited
  | Maximum stacksize for task 4: unlimited
  | Maximum stacksize for task 5: unlimited
  | Maximum stacksize for task 6: unlimited
  | Maximum stacksize for task 7: unlimited
  | Maximum stacksize for task 8: unlimited
  | Maximum stacksize for task 9: unlimited
  | Maximum stacksize for task 10: unlimited
  | Maximum stacksize for task 11: unlimited
  | Maximum stacksize for task 12: unlimited
  | Maximum stacksize for task 13: unlimited
  | Maximum stacksize for task 14: unlimited
  | Maximum stacksize for task 15: unlimited
  | Maximum stacksize for task 16: unlimited
  | Maximum stacksize for task 17: unlimited
  | Maximum stacksize for task 18: unlimited
  | Maximum stacksize for task 19: unlimited
  | Maximum stacksize for task 20: unlimited
  | Maximum stacksize for task 21: unlimited
  | Maximum stacksize for task 22: unlimited
  | Maximum stacksize for task 23: unlimited
  | Current stacksize for task 0: unlimited
  | Current stacksize for task 1: unlimited
  | Current stacksize for task 2: unlimited
  | Current stacksize for task 3: unlimited
  | Current stacksize for task 4: unlimited
  | Current stacksize for task 5: unlimited
  | Current stacksize for task 6: unlimited
  | Current stacksize for task 7: unlimited
  | Current stacksize for task 8: unlimited
  | Current stacksize for task 9: unlimited
  | Current stacksize for task 10: unlimited
  | Current stacksize for task 11: unlimited
  | Current stacksize for task 12: unlimited
  | Current stacksize for task 13: unlimited
  | Current stacksize for task 14: unlimited
  | Current stacksize for task 15: unlimited
  | Current stacksize for task 16: unlimited
  | Current stacksize for task 17: unlimited
  | Current stacksize for task 18: unlimited
  | Current stacksize for task 19: unlimited
  | Current stacksize for task 20: unlimited
  | Current stacksize for task 21: unlimited
  | Current stacksize for task 22: unlimited
  | Current stacksize for task 23: unlimited
  | Checking for scalapack...
  | Testing pdtran()...
  | All pdtran() tests passed.

  Obtaining array dimensions for all initial allocations:
  
  -----------------------------------------------------------------------
  Parsing control.in (first pass over file, find array dimensions only).
  The contents of control.in will be repeated verbatim below
  unless switched off by setting 'verbatim_writeout .false.' .
  in the first line of control.in .
  -----------------------------------------------------------------------
  
  #===============================================================================
  # FHI-aims file: ./control.in
  # Created using the Atomic Simulation Environment (ASE)
  # Thu Mar 19 17:13:24 2020
  #===============================================================================
  xc                                 pbe
  # include_spin_orbit
  # vdw_correction_hirshfeld
  # many_body_dispersion_nl 	 beta=0.81
  spin                               none
  k_grid 	 	 5 5 1
  relativistic                       atomic_zora scalar
  ### SCF settings
  adjust_scf 	 always 	 3
  # frozen_core_scf 	 .true.
  # charge_mix_param  0.05
  # occupation_type 	 gaussian 	 0.01
  # sc_accuracy_eev   1E-3 	 	 # sum of eigenvalues convergence
  # sc_accuracy_etot  1E-6 	 	 # total energy convergence
  # sc_accuracy_rho   1E-3 	 	 # electron density convergence
  # elsi_restart 	 read_and_write 	 1000
  #===============================================================================
  
  ################################################################################
  #
  #  FHI-aims code project
  # Volker Blum, Fritz Haber Institute Berlin, 2009
  #
  #  Suggested "tight" defaults for Mo atom (to be pasted into control.in file)
  #
  ################################################################################
    species        Mo
  #     global species definitions
      nucleus             42
      mass                95.94
  #
      l_hartree           6
  #
      cut_pot             4.0  2.0  1.0
      basis_dep_cutoff    1e-4
  #
      radial_base         59 7.0
      radial_multiplier   2
      angular_grids specified
        division   0.3117   50
        division   0.6750  110
        division   1.0351  194
        division   1.2073  302
        division   1.6402  434
  #      division   1.9185  590
  #      division   2.0237  770
  #      division   2.0980  974
  #      division   2.7972 1202
  #      outer_grid  974
        outer_grid  434
  ################################################################################
  #
  #  Definition of "minimal" basis
  #
  ################################################################################
  #     valence basis states
      valence      5  s   1.
      valence      4  p   6.
      valence      4  d   5.
  #     ion occupancy
      ion_occ     5  s   0.
      ion_occ     4  p   6.
      ion_occ     4  d   4.
  ################################################################################
  #
  #  Suggested additional basis functions. For production calculations,
  #  uncomment them one after another (the most important basis functions are
  #  listed first).
  #
  #  Constructed for dimers: 1.675 A, 1.9 A, 2.375 A, 3.00 A, 4.00 A
  #
  ################################################################################
  #  "First tier"  - max. impr. -711.23  meV, min. impr. -21.07 meV
       hydro 4 f 8.4
       hydro 3 d 2.8
       ionic 5 p auto
       hydro 5 g 12
       ionic 5 s auto
  #  "Second tier" - max. impr. -39.38  meV, min. impr. -2.68 meV
       hydro 4 f 12.4
       hydro 3 d 3.3
       hydro 6 h 17.2
       hydro 4 f 7.6
       hydro 3 p 3.0
       hydro 1 s 0.65
  #  "Third tier"  - max. impr. -5.50 meV, min. impr. -0.47 meV
  #     hydro 4 f 29.2
  #     hydro 5 g 11.2
  #     hydro 3 d 6.8
  #     hydro 6 h 14.8
  #     hydro 2 p 2.3
  #     hydro 4 s 3.8
  #  "Fourth tier"  - max. impr. -0.58 meV, min. impr. -0.19 meV
  #     hydro 5 f 6.8
  #     hydro 5 d 14.8
  #     hydro 6 s 7.8
  #     hydro 5 g 20.8
  #     hydro 5 d 10.4
  #     hydro 5 p 9.8
  #  Further functions - -0.17 meV and below
  #     hydro 5 d 3.2
  ################################################################################
  #
  #  FHI-aims code project
  # Volker Blum, Fritz Haber Institute Berlin, 2009
  #
  #  Suggested "tight" defaults for S atom (to be pasted into control.in file)
  #
  #  Revised Jan 04, 2011, following tests (SiC) done by Lydia Nemec:
  #     d and g functions of tier 2 now enabled by default.
  #
  ################################################################################
    species        S
  #     global species definitions
      nucleus             16
      mass                32.065
  #
      l_hartree           6
  #
      cut_pot             4.0          2.0  1.0
      basis_dep_cutoff    1e-4
  #
      radial_base         44 7.0
      radial_multiplier   2
      angular_grids       specified
        division   0.4665  110
        division   0.5810  194
        division   0.7139  302
        division   0.8274  434
  #      division   0.9105  590
  #      division   1.0975  770
  #      division   1.2028  974
  #      outer_grid  974
        outer_grid  434
  ################################################################################
  #
  #  Definition of "minimal" basis
  #
  ################################################################################
  #     valence basis states
      valence      3  s   2.
      valence      3  p   4.
  #     ion occupancy
      ion_occ      3  s   1.
      ion_occ      3  p   3.
  ################################################################################
  #
  #  Suggested additional basis functions. For production calculations,
  #  uncomment them one after another (the most important basis functions are
  #  listed first).
  #
  #  Constructed for dimers: 1.6 A, 1.9 A, 2.5 A, 3.25 A, 4.0 A
  #
  ################################################################################
  #  "First tier" - improvements: -652.81 meV to -45.53 meV
       ionic 3 d auto
       hydro 2 p 1.8
       hydro 4 f 7
       ionic 3 s auto
  #  "Second tier" - improvements: -30.20 meV to -1.74 meV
       hydro 4 d 6.2
       hydro 5 g 10.8
       hydro 4 p 4.9
       hydro 5 f 10
       hydro 1 s 0.8
  #  "Third tier" - improvements: -1.04 meV to -0.20 meV
  #     hydro 3 d 3.9
  #     hydro 3 d 2.7
  #     hydro 5 g 12
  #     hydro 4 p 10.4
  #     hydro 5 f 12.4
  #     hydro 2 s 1.9
  #  "Fourth tier" - improvements: -0.35 meV to -0.06 meV
  #     hydro 4 d 10.4
  #     hydro 4 p 7.2
  #     hydro 4 d 10
  #     hydro 5 g 19.2
  #     hydro 4 s 12
  #
  ################################################################################
  #
  # For methods that use the localized form of the "resolution of identity" for
  # the two-electron Coulomb operator (RI_method LVL), particularly Hartree-Fock and
  # hybrid density functional calculations, the highest accuracy can be obtained by
  # uncommenting the line beginning with "for_aux"  below, thus adding an extra g radial
  # function to the construction of the product basis set for the expansion.
  # See Ref. New J. Phys. 17, 093020 (2015) for more information, particularly Figs. 1 and 6.
  #
  ################################################################################
  #
  # for_aux hydro 5 g 6.0
  
  -----------------------------------------------------------------------
  Completed first pass over input file control.in .
  -----------------------------------------------------------------------
  
  
  -----------------------------------------------------------------------
  Parsing geometry.in (first pass over file, find array dimensions only).
  The contents of geometry.in will be repeated verbatim below
  unless switched off by setting 'verbatim_writeout .false.' .
  in the first line of geometry.in .
  -----------------------------------------------------------------------
  
  #=======================================================
  # FHI-aims file: ./geometry.in
  # Created using the Atomic Simulation Environment (ASE)
  # Thu Mar 19 17:13:24 2020
  #=======================================================
  lattice_vector 3.1600000017498795 0.0000000000000000 0.0000000000000000
  lattice_vector -1.5800000008749397 2.7366402774742662 0.0000000000000000
  lattice_vector 0.0000000000000000 0.0000000000000000 103.1610999999999763
  atom_frac 0.6666666666666667 0.3333333333333334 0.4846788178877504 Mo
  atom_frac 0.0000000000000000 0.0000000000000000 0.4999999999999999 S
  atom_frac 0.0000000000000000 0.0000000000000001 0.4693576357755009 S
  
  -----------------------------------------------------------------------
  Completed first pass over input file geometry.in .
  -----------------------------------------------------------------------
  

  Basic array size parameters:
  | Number of species                 :        2
  | Number of atoms                   :        3
  | Number of lattice vectors         :        3
  | Max. basis fn. angular momentum   :        5
  | Max. atomic/ionic basis occupied n:        5
  | Max. number of basis fn. types    :        3
  | Max. radial fns per species/type  :       10
  | Max. logarithmic grid size        :     1436
  | Max. radial integration grid size :      119
  | Max. angular integration grid size:      434
  | Max. angular grid division number :        8
  | Radial grid for Hartree potential :     1436
  | Number of spin channels           :        1

------------------------------------------------------------
          Reading file control.in.
------------------------------------------------------------
  XC: Using PBE gradient-corrected functionals.
  Spin treatment: No spin polarisation.
  Found k-point grid:         5         5         1
  Scalar relativistic treatment of kinetic energy: on-site free-atom approximation to ZORA.
  S.C.F. convergence parameters will be adjusted in iteration number     3 of each new s.c.f. cycle.
 
  Reading configuration options for species Mo                  .
  | Found nuclear charge :  42.0000
  | Found atomic mass :    95.9400000000000      amu
  | Found l_max for Hartree potential  :   6
  | Found cutoff potl. onset [A], width [A], scale factor :    4.00000    2.00000    1.00000
  | Threshold for basis-dependent cutoff potential is   0.100000E-03
  | Found data for basic radial integration grid :    59 points, outermost radius =    7.000 A
  | Found multiplier for basic radial grid :   2
  | Found angular grid specification: user-specified.
  | Specified grid contains     6 separate shells.
  | Check grid settings after all constraints further below.
  | Found free-atom valence shell :  5 s   1.000
  | Found free-atom valence shell :  4 p   6.000
  | Found free-atom valence shell :  4 d   5.000
  | Found free-ion valence shell :  5 s   0.000
  | Found free-ion valence shell :  4 p   6.000
  | Found free-ion valence shell :  4 d   4.000
  | Found hydrogenic basis function :  4 f   8.400
  | Found hydrogenic basis function :  3 d   2.800
  | Found ionic basis function :  5 p , default cutoff radius.
  | Found hydrogenic basis function :  5 g  12.000
  | Found ionic basis function :  5 s , default cutoff radius.
  | Found hydrogenic basis function :  4 f  12.400
  | Found hydrogenic basis function :  3 d   3.300
  | Found hydrogenic basis function :  6 h  17.200
  | Found hydrogenic basis function :  4 f   7.600
  | Found hydrogenic basis function :  3 p   3.000
  | Found hydrogenic basis function :  1 s   0.650
  Species Mo                  : Missing cutoff potential type.
  Defaulting to exp(1/x)/(1-x)^2 type cutoff potential.
  Species Mo: No 'logarithmic' tag. Using default grid for free atom:
  | Default logarithmic grid data [bohr] : 0.1000E-03 0.1000E+03 0.1012E+01
  | Will include ionic basis functions of  2.0-fold positive Mo                   ion.
  Species Mo: On-site basis accuracy parameter (for Gram-Schmidt orthonormalisation) not specified.
  Using default value basis_acc =  0.1000000E-03.
  Species Mo                  : Using default innermost maximum threshold i_radial=  2 for radial functions.
  Species Mo                  : Default cutoff onset for free atom density etc. : 0.40000000E+01 AA.
  Species Mo                  : Basic radial grid will be enhanced according to radial_multiplier =   2, to contain   119 grid points.
 
  Reading configuration options for species S                   .
  | Found nuclear charge :  16.0000
  | Found atomic mass :    32.0650000000000      amu
  | Found l_max for Hartree potential  :   6
  | Found cutoff potl. onset [A], width [A], scale factor :    4.00000    2.00000    1.00000
  | Threshold for basis-dependent cutoff potential is   0.100000E-03
  | Found data for basic radial integration grid :    44 points, outermost radius =    7.000 A
  | Found multiplier for basic radial grid :   2
  | Found angular grid specification: user-specified.
  | Specified grid contains     5 separate shells.
  | Check grid settings after all constraints further below.
  | Found free-atom valence shell :  3 s   2.000
  | Found free-atom valence shell :  3 p   4.000
  | Found free-ion valence shell :  3 s   1.000
  | Found free-ion valence shell :  3 p   3.000
  | Found ionic basis function :  3 d , default cutoff radius.
  | Found hydrogenic basis function :  2 p   1.800
  | Found hydrogenic basis function :  4 f   7.000
  | Found ionic basis function :  3 s , default cutoff radius.
  | Found hydrogenic basis function :  4 d   6.200
  | Found hydrogenic basis function :  5 g  10.800
  | Found hydrogenic basis function :  4 p   4.900
  | Found hydrogenic basis function :  5 f  10.000
  | Found hydrogenic basis function :  1 s   0.800
  Species S                   : Missing cutoff potential type.
  Defaulting to exp(1/x)/(1-x)^2 type cutoff potential.
  Species S : No 'logarithmic' tag. Using default grid for free atom:
  | Default logarithmic grid data [bohr] : 0.1000E-03 0.1000E+03 0.1012E+01
  | Will include ionic basis functions of  2.0-fold positive S                    ion.
  Species S : On-site basis accuracy parameter (for Gram-Schmidt orthonormalisation) not specified.
  Using default value basis_acc =  0.1000000E-03.
  Species S                   : Using default innermost maximum threshold i_radial=  2 for radial functions.
  Species S                   : Default cutoff onset for free atom density etc. : 0.40000000E+01 AA.
  Species S                   : Basic radial grid will be enhanced according to radial_multiplier =   2, to contain    89 grid points.
 
  Finished reading input file 'control.in'. Consistency checks are next.
 
  MPI_IN_PLACE appears to work with this MPI implementation.
  | Keeping use_mpi_in_place .true. (see manual).
  Target number of points in a grid batch is not set. Defaulting to  100
  Method for grid partitioning is not set. Defaulting to parallel hash+maxmin partitioning.
  Batch size limit is not set. Defaulting to    200
  By default, will store active basis functions for each batch.
  If in need of memory, prune_basis_once .false. can be used to disable this option.
  communication_type for Hartree potential was not specified.
  Defaulting to calc_hartree .
  Defaulting to Pulay charge density mixer.
  Pulay mixer: Number of relevant iterations not set.
  Defaulting to    8 iterations.
  Pulay mixer: Number of initial linear mixing iterations not set.
  Defaulting to    0 iterations.
  Work space size for distributed Hartree potential not set.
  Defaulting to   0.200000E+03 MB.
  Mixing parameter for charge density mixing has not been set.
  Using default: charge_mix_param =     0.0500.
  The mixing parameter will be adjusted in iteration number     3 of each s.c.f. cycle (i.e., each geometry step).
  Algorithm-dependent basis array size parameters:
  | n_max_pulay                         :        8
  Maximum number of self-consistency iterations not provided.
  Presetting  1000 iterations.
  Presetting      1001 iterations before the initial mixing cycle
  is restarted anyway using the sc_init_iter criterion / keyword.
  Presetting a factor      1.000 between actual scf density residual
  and density convergence criterion sc_accuracy_rho below which sc_init_iter
  takes no effect.
 * No s.c.f. convergence criteria (sc_accuracy_*) were provided in control.in.
 * The run will proceed with a reasonable default guess, but please check whether.
 * the s.c.f. cycles seem to take too much or too little time.
  Calculation of forces was not defined in control.in. No forces will be calculated.
  Geometry relaxation not requested: no relaxation will be performed.
 * Notice: The s.c.f. convergence criterion sc_accuracy_rho was not provided.
 * We used to stop in this case, and ask the user to provide reasonable
 * scf convergence criteria. However, this led some users to employ criteria
 * that led to extremely long run times, e.g., for simple relaxation.
 * We now preset a default value for sc_accuracy_rho if it is not set.
 * You may still wish to check if this setting is too tight or too loose for your needs.
 * Based on n_atoms, FHI-aims chose sc_accuracy_rho =  0.100000E-05 .
  No accuracy limit for integral partition fn. given. Defaulting to  0.1000E-14.
  No threshold value for u(r) in integrations given. Defaulting to  0.1000E-05.
  No occupation type (smearing scheme) given. Defaulting to Gaussian broadening, width =  0.1000E-01 eV.
  The width will be adjusted in iteration number     3 of each s.c.f. cycle (i.e., each geometry step).
  S.C.F. convergence parameters will be adjusted in iteration number     3 of the first full s.c.f. cycle only.
  No accuracy for occupation numbers given. Defaulting to  0.1000E-12.
  No threshold value for occupation numbers given. Defaulting to  0.0000E+00.
  No accuracy for fermi level given. Defaulting to  0.1000E-19.
  Maximum # of iterations to find E_F not set. Defaulting to  200.
  Preferred method for the eigenvalue solver ('KS_method') not specified in 'control.in'.
  Defaulting to serial version, LAPACK (via ELSI), since more k-points than CPUs available.
  Will not use alltoall communication since running on < 1024 CPUs.
  Threshold for basis singularities not set.
  Default threshold for basis singularities:  0.1000E-04
  partition_type (choice of integration weights) for integrals was not specified.
  | Using a version of the partition function of Stratmann and coworkers ('stratmann_sparse').
  | At each grid point, the set of atoms used to build the partition table is smoothly restricted to
  | only those atoms whose free-atom density would be non-zero at that grid point.
  Partitioning for Hartree potential was not defined. Using partition_type for integrals.
  | Adjusted default value of keyword multip_moments_threshold to:       0.10000000E-11
  | This value may affect high angular momentum components of the Hartree potential in periodic systems.
  Angular momentum expansion for Kerker preconditioner not set explicitly.
  | Using default value of   0
  No explicit requirement for turning off preconditioner.
  | By default, it will be turned off when the charge convergence reaches
  | sc_accuracy_rho  =   0.100000E-05
  No special mixing parameter while Kerker preconditioner is on.
  Using default: charge_mix_param =     0.0500.
  No q(lm)/r^(l+1) cutoff set for long-range Hartree potential.
  | Using default value of  0.100000E-09 .
  | Verify using the multipole_threshold keyword.
  Defaulting to new monopole extrapolation.
  Density update method: automatic selection selected.
  Using density matrix based charge density update.
  Using density matrix based charge density update.
  Using packed matrix style: index .
  Defaulting to use time-reversal symmetry for k-point grid.
  Charge integration errors on the 3D integration grid will be compensated
  by explicit normalization and distribution of residual charges.
  Use the "compensate_multipole_errors" flag to change this behaviour.
------------------------------------------------------------


------------------------------------------------------------
          Reading geometry description geometry.in.
------------------------------------------------------------
  Input structure read successfully.
  The structure contains        3 atoms,  and a total of         74.000 electrons.

  Input geometry:
  | Unit cell:
  |        3.16000000        0.00000000        0.00000000
  |       -1.58000000        2.73664028        0.00000000
  |        0.00000000        0.00000000      103.16110000
  | Atomic structure:
  |       Atom                x [A]            y [A]            z [A]
  |    1: Species Mo            1.58000000        0.91221343       50.00000000
  |    2: Species S             0.00000000        0.00000000       51.58055000
  |    3: Species S            -0.00000000        0.00000000       48.41945000

  Lattice parameters for 3D lattice (in Angstroms) :     3.160000    3.160000  103.161100
  Angle(s) between unit vectors (in degrees)       :    90.000000   90.000000  120.000000

  | The smallest distance between any two atoms is         2.41384996 AA.
  | The first atom of this pair is atom number                      2 .
  | The second atom of this pair is atom number                     1 .
  | Wigner-Seitz cell of the first atom image           0     1     0 .
  | (The Wigner-Seitz cell of the second atom is 0 0 0  by definition.)

  Symmetry information by spglib:
  | Precision set to  0.1E-04
  | Number of Operations  : 12
  | Space group           : 187
  | International         : P-6m2
  | Schoenflies           : D3h^1

  Quantities derived from the lattice vectors:
  | Reciprocal lattice vector 1:  1.988350  1.147974  0.000000
  | Reciprocal lattice vector 2:  0.000000  2.295949  0.000000
  | Reciprocal lattice vector 3:  0.000000  0.000000  0.060907
  | Unit cell volume                               :   0.892115E+03  A^3

  Range separation radius for Ewald summation (hartree_convergence_parameter):      5.00000000 bohr.

  Fractional coordinates:
                         L1                L2                L3
       atom_frac         0.66666667        0.33333333        0.48467882  Mo
       atom_frac         0.00000000        0.00000000        0.50000000  S
       atom_frac         0.00000000        0.00000000        0.46935764  S

  Number of empty states per atom not set in control.in - providing a guess from actual geometry.
  | Total number of empty states used during s.c.f. cycle:       12
  If you use a very high smearing, use empty_states (per atom!) in control.in to increase this value.

  Structure-dependent array size parameters: 
  | Maximum number of distinct radial functions  :       35
  | Maximum number of basis functions            :      183
  | Number of Kohn-Sham states (occupied + empty):       49
------------------------------------------------------------

------------------------------------------------------------
          Preparing all fixed parts of the calculation.
------------------------------------------------------------
  Determining machine precision:
    2.225073858507201E-308
  Setting up grids for atomic and cluster calculations.

  Creating wave function, potential, and density for free atoms.

  Species: Mo

  List of occupied orbitals and eigenvalues:
    n    l              occ      energy [Ha]    energy [eV]
    1    0           2.0000      -745.344654    -20281.8600
    2    0           2.0000      -103.288246     -2810.6162
    3    0           2.0000       -17.516687      -476.6533
    4    0           2.0000        -2.358559       -64.1796
    5    0           1.0000        -0.145159        -3.9500
    2    1           6.0000       -92.308627     -2511.8455
    3    1           6.0000       -13.936005      -379.2180
    4    1           6.0000        -1.408138       -38.3174
    3    2          10.0000        -8.119011      -220.9295
    4    2           5.0000        -0.132984        -3.6187


  Species: S

  List of occupied orbitals and eigenvalues:
    n    l              occ      energy [Ha]    energy [eV]
    1    0           2.0000       -88.680731     -2413.1255
    2    0           2.0000        -7.781719      -211.7513
    3    0           2.0000        -0.633662       -17.2428
    2    1           6.0000        -5.751976      -156.5192
    3    1           4.0000        -0.257086        -6.9957

  Creating fixed part of basis set: Ionic, confined, hydrogenic.
 
  Mo                   ion:

  List of free ionic orbitals and eigenvalues:
    n    l      energy [Ha]    energy [eV]
    1    0      -746.048685    -20301.0176
    2    0      -103.980912     -2829.4646
    3    0       -18.206601      -495.4268
    4    0        -3.040545       -82.7374
    2    1       -93.001013     -2530.6863
    3    1       -14.625827      -397.9890
    4    1        -2.084855       -56.7318
    3    2        -8.808854      -239.7011
    4    2        -0.765435       -20.8285


  List of ionic basis orbitals and eigenvalues:
    n    l      energy [Ha]    energy [eV]    outer radius [A]
    5    1        -0.465587       -12.6693       5.456393
    5    0        -0.650331       -17.6964       5.390095

 
  Mo                   hydrogenic:
 
  List of hydrogenic basis orbitals: 
    n    l      effective z      eigenvalue [eV]  inner max. [A]     outer max. [A]     outer radius [A]   
    4    3         8.400000       -60.0010           1.009788           1.009788           4.487018
    3    2         2.800000       -11.8048           1.687401           1.687401           5.456393
    5    4        12.000000       -78.3687           1.100005           1.100005           4.432498
    4    3        12.400000      -130.7506           0.682864           0.682864           3.428897
    3    2         3.300000       -16.4532           1.439455           1.439455           5.456393
    6    5        17.200000      -111.8085           1.113535           1.113535           4.169676
    4    3         7.600000       -49.1164           1.113535           1.113535           4.828511
    3    1         3.000000       -13.5316           0.528251           2.102736           5.456393
    1    0         0.650000        -5.7375           0.810333           0.810333           5.456393
 
 
  S                    ion:

  List of free ionic orbitals and eigenvalues:
    n    l      energy [Ha]    energy [eV]
    1    0       -89.703778     -2440.9640
    2    0        -8.775428      -238.7916
    3    0        -1.470343       -40.0101
    2    1        -6.747660      -183.6132
    3    1        -1.048627       -28.5346


  List of ionic basis orbitals and eigenvalues:
    n    l      energy [Ha]    energy [eV]    outer radius [A]
    3    2        -0.495605       -13.4861       5.386362
    3    0        -1.470336       -40.0099       3.967934

 
  S                    hydrogenic:
 
  List of hydrogenic basis orbitals: 
    n    l      effective z      eigenvalue [eV]  inner max. [A]     outer max. [A]     outer radius [A]   
    2    1         1.800000       -11.0118           1.168531           1.168531           5.452614
    4    3         7.000000       -41.6672           1.212182           1.212182           5.066981
    4    2         6.200000       -32.6848           0.582121           1.814567           5.386362
    5    4        10.800000       -63.4785           1.227092           1.227092           4.766538
    4    1         4.900000       -20.2928           0.304525           2.524192           5.452614
    5    3        10.000000       -54.4226           0.641929           1.727969           5.320915
    1    0         0.800000        -8.7059           0.657818           0.657818           5.386362
 

  Adding cutoff potential to free-atom effective potential.
  Creating atomic-like basis functions for current effective potential.

  Species Mo                  :

  List of atomic basis orbitals and eigenvalues:
    n    l      energy [Ha]    energy [eV]    outer radius [A]
    1    0      -745.344654    -20281.8600       0.247552
    2    0      -103.288246     -2810.6162       0.682864
    3    0       -17.516687      -476.6533       1.626637
    4    0        -2.358559       -64.1796       4.220963
    5    0        -0.145159        -3.9500       5.456393
    2    1       -92.308627     -2511.8455       0.699766
    3    1       -13.936005      -379.2180       1.793761
    4    1        -1.408138       -38.3174       4.828511
    3    2        -8.119011      -220.9295       2.181285
    4    2        -0.132984        -3.6187       5.390095


  Species S                   :

  List of atomic basis orbitals and eigenvalues:
    n    l      energy [Ha]    energy [eV]    outer radius [A]
    1    0       -88.680731     -2413.1255       0.682391
    2    0        -7.781719      -211.7513       2.289014
    3    0        -0.633662       -17.2428       5.256262
    2    1        -5.751976      -156.5192       2.555240
    3    1        -0.257086        -6.9957       5.386362

  Assembling full basis from fixed parts.
  | Species Mo :   atomic orbital   1 s accepted.
  | Species Mo :   atomic orbital   2 s accepted.
  | Species Mo :   atomic orbital   3 s accepted.
  | Species Mo :   atomic orbital   4 s accepted.
  | Species Mo :    ionic orbital   5 s accepted.
  | Species Mo :   atomic orbital   5 s accepted.
  | Species Mo :    hydro orbital   1 s accepted.
  | Species Mo :   atomic orbital   2 p accepted.
  | Species Mo :   atomic orbital   3 p accepted.
  | Species Mo :   atomic orbital   4 p accepted.
  | Species Mo :    ionic orbital   5 p accepted.
  | Species Mo :    hydro orbital   3 p accepted.
  | Species Mo :   atomic orbital   3 d accepted.
  | Species Mo :   atomic orbital   4 d accepted.
  | Species Mo :    hydro orbital   3 d accepted.
  | Species Mo :    hydro orbital   3 d accepted.
  | Species Mo :    hydro orbital   4 f accepted.
  | Species Mo :    hydro orbital   4 f accepted.
  | Species Mo :    hydro orbital   4 f accepted.
  | Species Mo :    hydro orbital   5 g accepted.
  | Species Mo :    hydro orbital   6 h accepted.
  | Species S :   atomic orbital   1 s accepted.
  | Species S :   atomic orbital   2 s accepted.
  | Species S :    ionic orbital   3 s accepted.
  | Species S :   atomic orbital   3 s accepted.
  | Species S :    hydro orbital   1 s accepted.
  | Species S :   atomic orbital   2 p accepted.
  | Species S :   atomic orbital   3 p accepted.
  | Species S :    hydro orbital   2 p accepted.
  | Species S :    hydro orbital   4 p accepted.
  | Species S :    ionic orbital   3 d accepted.
  | Species S :    hydro orbital   4 d accepted.
  | Species S :    hydro orbital   4 f accepted.
  | Species S :    hydro orbital   5 f accepted.
  | Species S :    hydro orbital   5 g accepted.
 
  Basis size parameters after reduction:
  | Total number of radial functions:       35
  | Total number of basis functions :      183
 
  Per-task memory consumption for arrays in subroutine allocate_ext:
  |          12.872848MB.
  Testing on-site integration grid accuracy.
  |  Species  Function  <phi|h_atom|phi> (log., in eV)  <phi|h_atom|phi> (rad., in eV)
           1        1             -20281.8599610543             -20281.8584300616
           1        2              -2810.6161812280              -2810.6161551921
           1        3               -476.6533163555               -476.6533136395
           1        4                -64.1796433667                -64.1796426456
           1        5                 -3.3691762756                 -3.3691802887
           1        6                  4.4704608512                  4.4699102345
           1        7                 47.6285199283                 47.6283663304
           1        8              -2511.8455406047              -2511.8455385741
           1        9               -379.2179896350               -379.2179882338
           1       10                -38.3173891619                -38.3173886619
           1       11                  0.2493245095                  0.2492931069
           1       12                 12.9899978429                 12.9896957264
           1       13               -220.9295301098               -220.9295297081
           1       14                 -3.6195697699                 -3.6195754704
           1       15                  7.1428000922                  7.1426882355
           1       16                 20.1860643586                 20.1854440119
           1       17                 39.6800378350                 39.6800378704
           1       18                 41.9987405107                 41.9987406673
           1       19                 51.4938078473                 51.4938137886
           1       20                 50.2449608881                 50.2449608586
           1       21                 84.8920029004                 84.8920028797
           2       22              -2413.1254568977              -2413.1254096663
           2       23               -211.7513411281               -211.7513404762
           2       24                -16.9725280787                -16.9725279206
           2       25                  7.6024436204                  7.6024549059
           2       26                 48.5754986812                 48.5751292874
           2       27               -156.5192206929               -156.5192205451
           2       28                 -6.9959757887                 -6.9959777655
           2       29                  6.8896462808                  6.8895564741
           2       30                 27.2255287135                 27.2252601701
           2       31                  6.0214250550                  6.0214220200
           2       32                 19.6206468977                 19.6206494558
           2       33                 24.7008710786                 24.7008710738
           2       34                 58.2239314521                 58.2239319465
           2       35                 47.5292252001                 47.5292260486

  Preparing densities etc. for the partition functions (integrals / Hartree potential).

  Preparations completed.
  max(cpu_time)          :      0.531 s.
  Wall clock time (cpu1) :      0.551 s.
------------------------------------------------------------

------------------------------------------------------------
          Begin self-consistency loop: Initialization.

          Date     :  20200319, Time     :  194127.867
------------------------------------------------------------

  Initializing index lists of integration centers etc. from given atomic structure:
  Mapping all atomic coordinates to central unit cell.

  Initializing the k-points
  Using symmetry for reducing the k-points
  | k-points reduced from:       25 to       13
  | Number of k-points                             :        13
  The eigenvectors in the calculations are COMPLEX.
  | K-points in task   0:         0
  | K-points in task   1:         1
  | K-points in task   2:         1
  | K-points in task   3:         1
  | K-points in task   4:         1
  | K-points in task   5:         1
  | K-points in task   6:         1
  | K-points in task   7:         1
  | K-points in task   8:         1
  | K-points in task   9:         1
  | K-points in task  10:         1
  | K-points in task  11:         1
  | K-points in task  12:         1
  | K-points in task  13:         1
  | K-points in task  14:         0
  | K-points in task  15:         0
  | K-points in task  16:         0
  | K-points in task  17:         0
  | K-points in task  18:         0
  | K-points in task  19:         0
  | K-points in task  20:         0
  | K-points in task  21:         0
  | K-points in task  22:         0
  | K-points in task  23:         0
  | Number of basis functions in the Hamiltonian integrals :      6079
  | Number of basis functions in a single unit cell        :       183
  | Number of centers in hartree potential         :       375
  | Number of centers in hartree multipole         :       189
  | Number of centers in electron density summation:       153
  | Number of centers in basis integrals           :       236
  | Number of centers in integrals                 :       136
  | Number of centers in hamiltonian               :       153
  | Consuming         16 KiB for k_phase.
  | Number of super-cells (origin) [n_cells]                     :         867
  | Number of super-cells (after PM_index) [n_cells]             :          83
  | Number of super-cells in hamiltonian [n_cells_in_hamiltonian]:          60
  | Size of matrix packed + index [n_hamiltonian_matrix_size] :      546094
  | Estimated reciprocal-space cutoff momentum G_max:         1.90186217 bohr^-1 .
  | Reciprocal lattice points for long-range Hartree potential:     664
  Partitioning the integration grid into batches with parallel hashing+maxmin method.
  | Number of batches:      779
  | Maximal batch size:     197
  | Minimal batch size:      50
  | Average batch size:      94.991
  | Standard deviation of batch sizes:      26.247

  Integration load balanced across    24 MPI tasks.
  Work distribution over tasks is as follows:
  Task     0 has       3089 integration points.
  Task     1 has       3107 integration points.
  Task     2 has       3081 integration points.
  Task     3 has       3102 integration points.
  Task     4 has       3097 integration points.
  Task     5 has       3107 integration points.
  Task     6 has       3022 integration points.
  Task     7 has       3036 integration points.
  Task     8 has       3107 integration points.
  Task     9 has       3084 integration points.
  Task    10 has       3092 integration points.
  Task    11 has       3113 integration points.
  Task    12 has       3079 integration points.
  Task    13 has       3116 integration points.
  Task    14 has       3095 integration points.
  Task    15 has       3018 integration points.
  Task    16 has       3111 integration points.
  Task    17 has       3089 integration points.
  Task    18 has       3101 integration points.
  Task    19 has       3093 integration points.
  Task    20 has       3033 integration points.
  Task    21 has       3109 integration points.
  Task    22 has       3045 integration points.
  Task    23 has       3072 integration points.
  Initializing partition tables, free-atom densities, potentials, etc. across the integration grid (initialize_grid_storage).
  | initialize_grid_storage: Actual outermost partition radius vs. multipole_radius_free
  | (-- VB: in principle, multipole_radius_free should be larger, hence this output)
  | Species        1: Confinement radius =              6.000000000000000 AA, multipole_radius_free =              6.016994434057369 AA.
  | Species        1: outer_partition_radius set to              6.016994434057369 AA .
  | Species        2: Confinement radius =              6.000000000000000 AA, multipole_radius_free =              6.012827091137924 AA.
  | Species        2: outer_partition_radius set to              6.012827091137924 AA .
  | The sparse table of interatomic distances needs        342.44 kbyte instead of       445.57 kbyte of memory.
  | Net number of integration points:    73998
  | of which are non-zero points    :    60024
  | Numerical average free-atom electrostatic potential    :     -1.08836632 eV
  Renormalizing the initial density to the exact electron count on the 3D integration grid.
  | Initial density: Formal number of electrons (from input files) :      74.0000000000
  | Integrated number of electrons on 3D grid     :      73.9999295872
  | Charge integration error                      :      -0.0000704128
  | Normalization factor for density and gradient :       1.0000009515
  Renormalizing the free-atom superposition density to the exact electron count on the 3D integration grid.
  | Formal number of electrons (from input files) :      74.0000000000
  | Integrated number of electrons on 3D grid     :      73.9999295872
  | Charge integration error                      :      -0.0000704128
  | Normalization factor for density and gradient :       1.0000009515
  Obtaining max. number of non-zero basis functions in each batch (get_n_compute_maxes).
  | Maximal number of non-zero basis functions:     1734 in task     0
  | Maximal number of non-zero basis functions:     1761 in task     1
  | Maximal number of non-zero basis functions:     1777 in task     2
  | Maximal number of non-zero basis functions:     1712 in task     3
  | Maximal number of non-zero basis functions:     1740 in task     4
  | Maximal number of non-zero basis functions:     1696 in task     5
  | Maximal number of non-zero basis functions:     1773 in task     6
  | Maximal number of non-zero basis functions:     1721 in task     7
  | Maximal number of non-zero basis functions:     1775 in task     8
  | Maximal number of non-zero basis functions:     1749 in task     9
  | Maximal number of non-zero basis functions:     1735 in task    10
  | Maximal number of non-zero basis functions:     1749 in task    11
  | Maximal number of non-zero basis functions:     1720 in task    12
  | Maximal number of non-zero basis functions:     1736 in task    13
  | Maximal number of non-zero basis functions:     1766 in task    14
  | Maximal number of non-zero basis functions:     1772 in task    15
  | Maximal number of non-zero basis functions:     1756 in task    16
  | Maximal number of non-zero basis functions:     1736 in task    17
  | Maximal number of non-zero basis functions:     1741 in task    18
  | Maximal number of non-zero basis functions:     1727 in task    19
  | Maximal number of non-zero basis functions:     1710 in task    20
  | Maximal number of non-zero basis functions:     1737 in task    21
  | Maximal number of non-zero basis functions:     1737 in task    22
  | Maximal number of non-zero basis functions:     1776 in task    23
  Allocating        0.000 MB for KS_eigenvector_complex
  Integrating Hamiltonian matrix: batch-based integration.
  Time summed over all CPUs for integration: real work       26.219 s, elapsed       27.825 s
  Integrating overlap matrix.
  Time summed over all CPUs for integration: real work       19.362 s, elapsed       20.628 s
  Decreasing sparse matrix size:
  | Tolerance:  0.1000E-12
  Hamiltonian matrix
  | Array has   438725 nonzero elements out of   546094 elements
  | Sparsity factor is 0.197
  Overlap matrix
  | Array has   415235 nonzero elements out of   546094 elements
  | Sparsity factor is 0.240
  New size of hamiltonian matrix:      442330

  Updating Kohn-Sham eigenvalues and eigenvectors using ELSI and the (modified) LAPACK eigensolver.

  Obtaining occupation numbers and chemical potential using ELSI.
  | Chemical potential (Fermi level):    -4.00193034 eV
  Writing Kohn-Sham eigenvalues.
  K-point:       1 at    0.000000    0.000000    0.000000 (in units of recip. lattice)

  State    Occupation    Eigenvalue [Ha]    Eigenvalue [eV]
      1       2.00000        -745.362498       -20282.34553
      2       2.00000        -103.306617        -2811.11609
      3       2.00000         -92.326987        -2512.34514
      4       2.00000         -92.326987        -2512.34514
      5       2.00000         -92.326971        -2512.34471
      6       2.00000         -88.712500        -2413.98995
      7       2.00000         -88.712500        -2413.98995
      8       2.00000         -17.536734         -477.19880
      9       2.00000         -13.956162         -379.76649
     10       2.00000         -13.956162         -379.76649
     11       2.00000         -13.956023         -379.76272
     12       2.00000          -8.139126         -221.47689
     13       2.00000          -8.139126         -221.47689
     14       2.00000          -8.139052         -221.47487
     15       2.00000          -8.139052         -221.47487
     16       2.00000          -8.138980         -221.47291
     17       2.00000          -7.816387         -212.69471
     18       2.00000          -7.816387         -212.69471
     19       2.00000          -5.786619         -157.46192
     20       2.00000          -5.786619         -157.46192
     21       2.00000          -5.786150         -157.44915
     22       2.00000          -5.786150         -157.44915
     23       2.00000          -5.786150         -157.44915
     24       2.00000          -5.786150         -157.44915
     25       2.00000          -2.394940          -65.16962
     26       2.00000          -1.455293          -39.60055
     27       2.00000          -1.444318          -39.30189
     28       2.00000          -1.444318          -39.30189
     29       2.00000          -0.779536          -21.21226
     30       2.00000          -0.731369          -19.90156
     31       2.00000          -0.452690          -12.31832
     32       2.00000          -0.324673           -8.83480
     33       2.00000          -0.324642           -8.83396
     34       2.00000          -0.324642           -8.83395
     35       2.00000          -0.287881           -7.83363
     36       2.00000          -0.287880           -7.83361
     37       2.00000          -0.220429           -5.99818
     38       0.00000          -0.124995           -3.40128
     39       0.00000          -0.124994           -3.40125
     40       0.00000          -0.122356           -3.32949
     41       0.00000          -0.122356           -3.32947
     42       0.00000          -0.020544           -0.55903
     43       0.00000           0.029149            0.79317
     44       0.00000           0.044439            1.20924
     45       0.00000           0.083780            2.27978
     46       0.00000           0.149771            4.07547
     47       0.00000           0.149771            4.07548
     48       0.00000           0.222583            6.05680
     49       0.00000           0.222584            6.05683

  What follows are estimated values for band gap, HOMO, LUMO, etc.
  | They are estimated on a discrete k-point grid and not necessarily exact.
  | For converged numbers, create a DOS and/or band structure plot on a denser k-grid.

  Highest occupied state (VBM) at     -5.99817753 eV (relative to internal zero)
  | Occupation number:      2.00000000
  | K-point:       1 at    0.000000    0.000000    0.000000 (in units of recip. lattice)

  Lowest unoccupied state (CBM) at    -3.95269573 eV (relative to internal zero)
  | Occupation number:      0.00000000
  | K-point:      11 at    0.600000    0.200000    0.000000 (in units of recip. lattice)

  ESTIMATED overall HOMO-LUMO gap:      2.04548180 eV between HOMO at k-point 1 and LUMO at k-point 11
  | This appears to be an indirect band gap.
  | Smallest direct gap :      2.50038685 eV for k_point 12 at    0.600000    0.200000    0.000000 (in units of recip. lattice)
  The gap value is above 0.2 eV. Unless you are using a very sparse k-point grid,
  this system is most likely an insulator or a semiconductor.
  Calculating total energy contributions from superposition of free atom densities.

  Total energy components:
  | Sum of eigenvalues            :       -2928.30734686 Ha      -79683.29714946 eV
  | XC energy correction          :        -175.66849646 Ha       -4780.18300180 eV
  | XC potential correction       :         228.40799333 Ha        6215.29772936 eV
  | Free-atom electrostatic energy:       -2012.01973442 Ha      -54749.84261476 eV
  | Hartree energy correction     :           0.00000000 Ha           0.00000000 eV
  | Entropy correction            :          -0.00000000 Ha          -0.00000000 eV
  | ---------------------------
  | Total energy                  :       -4887.58758440 Ha     -132998.02503666 eV
  | Total energy, T -> 0          :       -4887.58758440 Ha     -132998.02503666 eV  <-- do not rely on this value for anything but (periodic) metals
  | Electronic free energy        :       -4887.58758440 Ha     -132998.02503666 eV

  Derived energy quantities:
  | Kinetic energy                :        5018.34675967 Ha      136556.16323182 eV
  | Electrostatic energy          :       -9730.26584762 Ha     -264774.00526668 eV
  | Energy correction for multipole
  | error in Hartree potential    :           0.00000000 Ha           0.00000000 eV
  | Sum of eigenvalues per atom                           :      -26561.09904982 eV
  | Total energy (T->0) per atom                          :      -44332.67501222 eV  <-- do not rely on this value for anything but (periodic) metals
  | Electronic free energy per atom                       :      -44332.67501222 eV
  Initialize hartree_potential_storage
  Max. number of atoms included in rho_multipole:            3

  End scf initialization - timings             :  max(cpu_time)    wall_clock(cpu1)
  | Time for scf. initialization               :        4.690 s           4.704 s
  | Boundary condition initialization          :        1.789 s           1.790 s
  | Integration                                :        2.063 s           2.065 s
  | Solution of K.-S. eqns.                    :        0.052 s           0.052 s
  | Grid partitioning                          :        0.562 s           0.563 s
  | Preloading free-atom quantities on grid    :        0.023 s           0.023 s
  | Free-atom superposition energy             :        0.015 s           0.015 s
  | Total energy evaluation                    :        0.000 s           0.000 s

  Partial memory accounting:
  | Current value for overall tracked memory usage:
  |   Minimum:        8.438 MB (on task  0)
  |   Maximum:        8.575 MB (on task  1)
  |   Average:        8.512 MB
  | Peak value for overall tracked memory usage:
  |   Minimum:       40.185 MB (on task  5 after allocating wave)
  |   Maximum:       42.698 MB (on task  2 after allocating wave)
  |   Average:       41.577 MB
  | Largest tracked array allocation so far:
  |   Minimum:       21.945 MB (hamiltonian_shell on task  5)
  |   Maximum:       24.092 MB (hamiltonian_shell on task  2)
  |   Average:       23.187 MB
  Note:  These values currently only include a subset of arrays which are explicitly tracked.
  The "true" memory usage will be greater.
------------------------------------------------------------

------------------------------------------------------------
          Begin self-consistency iteration #    1

  Date     :  20200319, Time     :  194132.574
------------------------------------------------------------
  Evaluating new KS density using the density matrix
  Evaluating density matrix
  Time summed over all CPUs for getting density from density matrix: real work       58.764 s, elapsed       62.724 s
  Integration grid: deviation in total charge (<rho> - N_e) =   8.242296E-13
  Pulay mixing of updated and previous charge densities.
  Renormalizing the density to the exact electron count on the 3D integration grid.
  | Formal number of electrons (from input files) :      74.0000000000
  | Integrated number of electrons on 3D grid     :      73.9998354153
  | Charge integration error                      :      -0.0001645847
  | Normalization factor for density and gradient :       1.0000022241

  Evaluating partitioned Hartree potential by multipole expansion.
  | Original multipole sum: apparent total charge =  -0.962233E-14
  | Sum of charges compensated after spline to logarithmic grids =   0.244457E-07
  | Analytical far-field extrapolation by fixed multipoles:
  | Hartree multipole sum: apparent total charge =  -0.967152E-14
  Summing up the Hartree potential.
  Time summed over all CPUs for potential: real work        4.837 s, elapsed        5.044 s
  | RMS charge density error from multipole expansion :   0.256018E-03
  | Average real-space part of the electrostatic potential :     -0.00015249 eV

  Integrating Hamiltonian matrix: batch-based integration.
  Time summed over all CPUs for integration: real work       25.499 s, elapsed       27.016 s

  Updating Kohn-Sham eigenvalues and eigenvectors using ELSI and the (modified) LAPACK eigensolver.

  Obtaining occupation numbers and chemical potential using ELSI.
  | Chemical potential (Fermi level):    -4.06968420 eV
  Writing Kohn-Sham eigenvalues.
  K-point:       1 at    0.000000    0.000000    0.000000 (in units of recip. lattice)

  State    Occupation    Eigenvalue [Ha]    Eigenvalue [eV]
      1       2.00000        -745.380277       -20282.82933
      2       2.00000        -103.324303        -2811.59733
      3       2.00000         -92.344782        -2512.82937
      4       2.00000         -92.344782        -2512.82937
      5       2.00000         -92.344775        -2512.82919
      6       2.00000         -88.704724        -2413.77836
      7       2.00000         -88.704724        -2413.77836
      8       2.00000         -17.551631         -477.60418
      9       2.00000         -13.971050         -380.17161
     10       2.00000         -13.971050         -380.17161
     11       2.00000         -13.970943         -380.16870
     12       2.00000          -8.154235         -221.88803
     13       2.00000          -8.154235         -221.88803
     14       2.00000          -8.154201         -221.88710
     15       2.00000          -8.154201         -221.88710
     16       2.00000          -8.154099         -221.88433
     17       2.00000          -7.810178         -212.52576
     18       2.00000          -7.810178         -212.52576
     19       2.00000          -5.780210         -157.28752
     20       2.00000          -5.780210         -157.28752
     21       2.00000          -5.779837         -157.27737
     22       2.00000          -5.779837         -157.27737
     23       2.00000          -5.779837         -157.27737
     24       2.00000          -5.779837         -157.27737
     25       2.00000          -2.404941          -65.44177
     26       2.00000          -1.464021          -39.83804
     27       2.00000          -1.453331          -39.54714
     28       2.00000          -1.453331          -39.54714
     29       2.00000          -0.776831          -21.13864
     30       2.00000          -0.728549          -19.82483
     31       2.00000          -0.451803          -12.29418
     32       2.00000          -0.325270           -8.85105
     33       2.00000          -0.325270           -8.85104
     34       2.00000          -0.322161           -8.76646
     35       2.00000          -0.287609           -7.82625
     36       2.00000          -0.287609           -7.82623
     37       2.00000          -0.222970           -6.06732
     38       0.00000          -0.126645           -3.44617
     39       0.00000          -0.126644           -3.44615
     40       0.00000          -0.123110           -3.35000
     41       0.00000          -0.123110           -3.34999
     42       0.00000          -0.019702           -0.53611
     43       0.00000           0.029507            0.80291
     44       0.00000           0.045593            1.24065
     45       0.00000           0.085618            2.32978
     46       0.00000           0.151286            4.11669
     47       0.00000           0.151286            4.11669
     48       0.00000           0.224023            6.09597
     49       0.00000           0.224024            6.09599

  What follows are estimated values for band gap, HOMO, LUMO, etc.
  | They are estimated on a discrete k-point grid and not necessarily exact.
  | For converged numbers, create a DOS and/or band structure plot on a denser k-grid.

  Highest occupied state (VBM) at     -6.06731583 eV (relative to internal zero)
  | Occupation number:      2.00000000
  | K-point:       1 at    0.000000    0.000000    0.000000 (in units of recip. lattice)

  Lowest unoccupied state (CBM) at    -4.02052684 eV (relative to internal zero)
  | Occupation number:      0.00000000
  | K-point:      11 at    0.600000    0.200000    0.000000 (in units of recip. lattice)

  ESTIMATED overall HOMO-LUMO gap:      2.04678898 eV between HOMO at k-point 1 and LUMO at k-point 11
  | This appears to be an indirect band gap.
  | Smallest direct gap :      2.52508476 eV for k_point 6 at    0.600000    0.200000    0.000000 (in units of recip. lattice)
  The gap value is above 0.2 eV. Unless you are using a very sparse k-point grid,
  this system is most likely an insulator or a semiconductor.

  Total energy components:
  | Sum of eigenvalues            :       -2928.67509393 Ha      -79693.30405637 eV
  | XC energy correction          :        -175.65805438 Ha       -4779.89885829 eV
  | XC potential correction       :         228.39422482 Ha        6214.92306928 eV
  | Free-atom electrostatic energy:       -2012.01973442 Ha      -54749.84261476 eV
  | Hartree energy correction     :           0.38293856 Ha          10.42028849 eV
  | Entropy correction            :          -0.00000000 Ha          -0.00000000 eV
  | ---------------------------
  | Total energy                  :       -4887.57571933 Ha     -132997.70217164 eV
  | Total energy, T -> 0          :       -4887.57571933 Ha     -132997.70217164 eV  <-- do not rely on this value for anything but (periodic) metals
  | Electronic free energy        :       -4887.57571933 Ha     -132997.70217164 eV

  Derived energy quantities:
  | Kinetic energy                :        5018.24454635 Ha      136553.38186573 eV
  | Electrostatic energy          :       -9730.16221130 Ha     -264771.18517909 eV
  | Energy correction for multipole
  | error in Hartree potential    :          -0.00003804 Ha          -0.00103521 eV
  | Sum of eigenvalues per atom                           :      -26564.43468546 eV
  | Total energy (T->0) per atom                          :      -44332.56739055 eV  <-- do not rely on this value for anything but (periodic) metals
  | Electronic free energy per atom                       :      -44332.56739055 eV

  Self-consistency convergence accuracy:
  | Change of charge density      :  0.2797E+00
  | Change of sum of eigenvalues  : -0.1001E+02 eV
  | Change of total energy        :  0.3229E+00 eV

  End self-consistency iteration #     1       :  max(cpu_time)    wall_clock(cpu1)
  | Time for this iteration                    :        4.073 s           4.073 s
  | Charge density update                      :        2.628 s           2.628 s
  | Density mixing & preconditioning           :        0.053 s           0.053 s
  | Hartree multipole update                   :        0.002 s           0.003 s
  | Hartree multipole summation                :        0.225 s           0.225 s
  | Integration                                :        1.149 s           1.149 s
  | Solution of K.-S. eqns.                    :        0.014 s           0.015 s
  | Total energy evaluation                    :        0.000 s           0.000 s

  Partial memory accounting:
  | Current value for overall tracked memory usage:
  |   Minimum:        8.438 MB (on task  0)
  |   Maximum:        8.575 MB (on task  1)
  |   Average:        8.512 MB
  | Peak value for overall tracked memory usage:
  |   Minimum:       45.814 MB (on task  5 after allocating gradient_basis_wave)
  |   Maximum:       48.691 MB (on task  2 after allocating gradient_basis_wave)
  |   Average:       47.418 MB
  | Largest tracked array allocation so far:
  |   Minimum:       21.945 MB (hamiltonian_shell on task  5)
  |   Maximum:       24.092 MB (hamiltonian_shell on task  2)
  |   Average:       23.187 MB
  Note:  These values currently only include a subset of arrays which are explicitly tracked.
  The "true" memory usage will be greater.
------------------------------------------------------------

------------------------------------------------------------
          Begin self-consistency iteration #    2

  Date     :  20200319, Time     :  194136.649
------------------------------------------------------------
  Evaluating new KS density using the density matrix
  Evaluating density matrix
  Time summed over all CPUs for getting density from density matrix: real work       58.759 s, elapsed       62.830 s
  Integration grid: deviation in total charge (<rho> - N_e) =   8.668621E-13
  Pulay mixing of updated and previous charge densities.
  Renormalizing the density to the exact electron count on the 3D integration grid.
  | Formal number of electrons (from input files) :      74.0000000000
  | Integrated number of electrons on 3D grid     :      73.9986672301
  | Charge integration error                      :      -0.0013327699
  | Normalization factor for density and gradient :       1.0000180107

  Evaluating partitioned Hartree potential by multipole expansion.
  | Original multipole sum: apparent total charge =   0.958082E-14
  | Sum of charges compensated after spline to logarithmic grids =  -0.620651E-08
  | Analytical far-field extrapolation by fixed multipoles:
  | Hartree multipole sum: apparent total charge =   0.975300E-14
  Summing up the Hartree potential.
  Time summed over all CPUs for potential: real work        5.426 s, elapsed        5.673 s
  | RMS charge density error from multipole expansion :   0.224213E-02
  | Average real-space part of the electrostatic potential :     -0.00118623 eV

  Integrating Hamiltonian matrix: batch-based integration.
  Time summed over all CPUs for integration: real work       25.429 s, elapsed       26.996 s

  Updating Kohn-Sham eigenvalues and eigenvectors using ELSI and the (modified) LAPACK eigensolver.

  Obtaining occupation numbers and chemical potential using ELSI.
  | Chemical potential (Fermi level):    -4.48541496 eV
  What follows are estimated values for band gap, HOMO, LUMO, etc.
  | They are estimated on a discrete k-point grid and not necessarily exact.
  | For converged numbers, create a DOS and/or band structure plot on a denser k-grid.

  Highest occupied state (VBM) at     -6.51199725 eV (relative to internal zero)
  | Occupation number:      2.00000000
  | K-point:       1 at    0.000000    0.000000    0.000000 (in units of recip. lattice)

  Lowest unoccupied state (CBM) at    -4.43634461 eV (relative to internal zero)
  | Occupation number:      0.00000000
  | K-point:      13 at    0.800000    0.800000    0.000000 (in units of recip. lattice)

  ESTIMATED overall HOMO-LUMO gap:      2.07565264 eV between HOMO at k-point 1 and LUMO at k-point 13
  | This appears to be an indirect band gap.
  | Smallest direct gap :      2.32246857 eV for k_point 8 at    0.800000    0.800000    0.000000 (in units of recip. lattice)
  The gap value is above 0.2 eV. Unless you are using a very sparse k-point grid,
  this system is most likely an insulator or a semiconductor.

  Total energy components:
  | Sum of eigenvalues            :       -2931.13552474 Ha      -79760.25578526 eV
  | XC energy correction          :        -175.58547060 Ha       -4777.92375303 eV
  | XC potential correction       :         228.29813668 Ha        6212.30837787 eV
  | Free-atom electrostatic energy:       -2012.01973442 Ha      -54749.84261476 eV
  | Hartree energy correction     :           2.90715344 Ha          79.10767006 eV
  | Entropy correction            :          -0.00000000 Ha          -0.00000000 eV
  | ---------------------------
  | Total energy                  :       -4887.53543963 Ha     -132996.60610512 eV
  | Total energy, T -> 0          :       -4887.53543963 Ha     -132996.60610512 eV  <-- do not rely on this value for anything but (periodic) metals
  | Electronic free energy        :       -4887.53543963 Ha     -132996.60610512 eV

  Derived energy quantities:
  | Kinetic energy                :        5017.48410261 Ha      136532.68913885 eV
  | Electrostatic energy          :       -9729.43407165 Ha     -264751.37149094 eV
  | Energy correction for multipole
  | error in Hartree potential    :          -0.00034630 Ha          -0.00942336 eV
  | Sum of eigenvalues per atom                           :      -26586.75192842 eV
  | Total energy (T->0) per atom                          :      -44332.20203504 eV  <-- do not rely on this value for anything but (periodic) metals
  | Electronic free energy per atom                       :      -44332.20203504 eV

  Self-consistency convergence accuracy:
  | Change of charge density      :  0.2499E+00
  | Change of sum of eigenvalues  : -0.6695E+02 eV
  | Change of total energy        :  0.1096E+01 eV

  End self-consistency iteration #     2       :  max(cpu_time)    wall_clock(cpu1)
  | Time for this iteration                    :        4.096 s           4.096 s
  | Charge density update                      :        2.631 s           2.631 s
  | Density mixing & preconditioning           :        0.053 s           0.053 s
  | Hartree multipole update                   :        0.002 s           0.002 s
  | Hartree multipole summation                :        0.251 s           0.251 s
  | Integration                                :        1.144 s           1.143 s
  | Solution of K.-S. eqns.                    :        0.014 s           0.015 s
  | Total energy evaluation                    :        0.000 s           0.000 s

  Partial memory accounting:
  | Current value for overall tracked memory usage:
  |   Minimum:        8.438 MB (on task  0)
  |   Maximum:        8.575 MB (on task  1)
  |   Average:        8.512 MB
  | Peak value for overall tracked memory usage:
  |   Minimum:       45.814 MB (on task  5 after allocating gradient_basis_wave)
  |   Maximum:       48.691 MB (on task  2 after allocating gradient_basis_wave)
  |   Average:       47.418 MB
  | Largest tracked array allocation so far:
  |   Minimum:       21.945 MB (hamiltonian_shell on task  5)
  |   Maximum:       24.092 MB (hamiltonian_shell on task  2)
  |   Average:       23.187 MB
  Note:  These values currently only include a subset of arrays which are explicitly tracked.
  The "true" memory usage will be greater.
------------------------------------------------------------

------------------------------------------------------------
          Begin self-consistency iteration #    3

  Date     :  20200319, Time     :  194140.745
------------------------------------------------------------
  Evaluating new KS density using the density matrix
  Evaluating density matrix
  Time summed over all CPUs for getting density from density matrix: real work       58.767 s, elapsed       62.836 s
  Integration grid: deviation in total charge (<rho> - N_e) =   9.379164E-13
  Pulay mixing of updated and previous charge densities.
  Renormalizing the density to the exact electron count on the 3D integration grid.
  | Formal number of electrons (from input files) :      74.0000000000
  | Integrated number of electrons on 3D grid     :      73.9998475846
  | Charge integration error                      :      -0.0001524154
  | Normalization factor for density and gradient :       1.0000020597

  Evaluating partitioned Hartree potential by multipole expansion.
  | Original multipole sum: apparent total charge =   0.108599E-13
  | Sum of charges compensated after spline to logarithmic grids =   0.515815E-07
  | Analytical far-field extrapolation by fixed multipoles:
  | Hartree multipole sum: apparent total charge =   0.109460E-13
  Summing up the Hartree potential.
  Time summed over all CPUs for potential: real work        5.377 s, elapsed        5.617 s
  | RMS charge density error from multipole expansion :   0.182846E-02
  | Average real-space part of the electrostatic potential :      0.00056229 eV

  Integrating Hamiltonian matrix: batch-based integration.
  Time summed over all CPUs for integration: real work       25.419 s, elapsed       26.974 s

  Updating Kohn-Sham eigenvalues and eigenvectors using ELSI and the (modified) LAPACK eigensolver.

  Obtaining occupation numbers and chemical potential using ELSI.
  | Chemical potential (Fermi level):    -3.50088135 eV
  What follows are estimated values for band gap, HOMO, LUMO, etc.
  | They are estimated on a discrete k-point grid and not necessarily exact.
  | For converged numbers, create a DOS and/or band structure plot on a denser k-grid.

  Highest occupied state (VBM) at     -5.54431758 eV (relative to internal zero)
  | Occupation number:      2.00000000
  | K-point:       1 at    0.000000    0.000000    0.000000 (in units of recip. lattice)

  Lowest unoccupied state (CBM) at    -3.45160853 eV (relative to internal zero)
  | Occupation number:      0.00000000
  | K-point:       5 at    0.200000    0.600000    0.000000 (in units of recip. lattice)

  ESTIMATED overall HOMO-LUMO gap:      2.09270905 eV between HOMO at k-point 1 and LUMO at k-point 5
  | This appears to be an indirect band gap.
  | Smallest direct gap :      2.50066858 eV for k_point 6 at    0.200000    0.600000    0.000000 (in units of recip. lattice)
  The gap value is above 0.2 eV. Unless you are using a very sparse k-point grid,
  this system is most likely an insulator or a semiconductor.

  Checking to see if s.c.f. parameters should be adjusted.
  The system likely has a gap. Increased the default Pulay mixing parameter (charge_mix_param). Value:   0.200000 .
  Kept the default occupation width. Value:   0.010000 eV.

  Total energy components:
  | Sum of eigenvalues            :       -2927.25903928 Ha      -79654.77124888 eV
  | XC energy correction          :        -175.64217349 Ha       -4779.46671719 eV
  | XC potential correction       :         228.37326039 Ha        6214.35259800 eV
  | Free-atom electrostatic energy:       -2012.01973442 Ha      -54749.84261476 eV
  | Hartree energy correction     :          -1.01419778 Ha         -27.59772564 eV
  | Entropy correction            :          -0.00000000 Ha          -0.00000000 eV
  | ---------------------------
  | Total energy                  :       -4887.56188457 Ha     -132997.32570847 eV
  | Total energy, T -> 0          :       -4887.56188457 Ha     -132997.32570847 eV  <-- do not rely on this value for anything but (periodic) metals
  | Electronic free energy        :       -4887.56188457 Ha     -132997.32570847 eV

  Derived energy quantities:
  | Kinetic energy                :        5018.42686100 Ha      136558.34289993 eV
  | Electrostatic energy          :       -9730.34657208 Ha     -264776.20189121 eV
  | Energy correction for multipole
  | error in Hartree potential    :          -0.00030056 Ha          -0.00817858 eV
  | Sum of eigenvalues per atom                           :      -26551.59041629 eV
  | Total energy (T->0) per atom                          :      -44332.44190282 eV  <-- do not rely on this value for anything but (periodic) metals
  | Electronic free energy per atom                       :      -44332.44190282 eV

  Self-consistency convergence accuracy:
  | Change of charge density      :  0.8743E-01
  | Change of sum of eigenvalues  :  0.1055E+03 eV
  | Change of total energy        : -0.7196E+00 eV

  End self-consistency iteration #     3       :  max(cpu_time)    wall_clock(cpu1)
  | Time for this iteration                    :        4.094 s           4.095 s
  | Charge density update                      :        2.632 s           2.632 s
  | Density mixing & preconditioning           :        0.052 s           0.053 s
  | Hartree multipole update                   :        0.002 s           0.002 s
  | Hartree multipole summation                :        0.250 s           0.250 s
  | Integration                                :        1.143 s           1.143 s
  | Solution of K.-S. eqns.                    :        0.014 s           0.014 s
  | Total energy evaluation                    :        0.000 s           0.000 s

  Partial memory accounting:
  | Current value for overall tracked memory usage:
  |   Minimum:        8.438 MB (on task  0)
  |   Maximum:        8.575 MB (on task  1)
  |   Average:        8.512 MB
  | Peak value for overall tracked memory usage:
  |   Minimum:       45.815 MB (on task  5 after allocating gradient_basis_wave)
  |   Maximum:       48.692 MB (on task  2 after allocating gradient_basis_wave)
  |   Average:       47.419 MB
  | Largest tracked array allocation so far:
  |   Minimum:       21.945 MB (hamiltonian_shell on task  5)
  |   Maximum:       24.092 MB (hamiltonian_shell on task  2)
  |   Average:       23.187 MB
  Note:  These values currently only include a subset of arrays which are explicitly tracked.
  The "true" memory usage will be greater.
------------------------------------------------------------

------------------------------------------------------------
          Begin self-consistency iteration #    4

  Date     :  20200319, Time     :  194144.840
------------------------------------------------------------
  Evaluating new KS density using the density matrix
  Evaluating density matrix
  Time summed over all CPUs for getting density from density matrix: real work       58.845 s, elapsed       62.905 s
  Integration grid: deviation in total charge (<rho> - N_e) =   7.673862E-13
  Pulay mixing of updated and previous charge densities.
  Renormalizing the density to the exact electron count on the 3D integration grid.
  | Formal number of electrons (from input files) :      74.0000000000
  | Integrated number of electrons on 3D grid     :      73.9989567355
  | Charge integration error                      :      -0.0010432645
  | Normalization factor for density and gradient :       1.0000140984

  Evaluating partitioned Hartree potential by multipole expansion.
[...]
  | Hartree multipole update                   :        0.002 s           0.002 s
  | Hartree multipole summation                :        0.262 s           0.262 s
  | Integration                                :        1.144 s           1.143 s
  | Solution of K.-S. eqns.                    :        0.014 s           0.015 s
  | Total energy evaluation                    :        0.000 s           0.000 s

  Partial memory accounting:
  | Current value for overall tracked memory usage:
  |   Minimum:        8.438 MB (on task  0)
  |   Maximum:        8.575 MB (on task  1)
  |   Average:        8.513 MB
  | Peak value for overall tracked memory usage:
  |   Minimum:       45.815 MB (on task  5 after allocating gradient_basis_wave)
  |   Maximum:       48.692 MB (on task  2 after allocating gradient_basis_wave)
  |   Average:       47.419 MB
  | Largest tracked array allocation so far:
  |   Minimum:       21.945 MB (hamiltonian_shell on task  5)
  |   Maximum:       24.092 MB (hamiltonian_shell on task  2)
  |   Average:       23.187 MB
  Note:  These values currently only include a subset of arrays which are explicitly tracked.
  The "true" memory usage will be greater.
------------------------------------------------------------

------------------------------------------------------------
          Begin self-consistency iteration #   95

  Date     :  20200319, Time     :  194758.145
------------------------------------------------------------
  Evaluating new KS density using the density matrix
  Evaluating density matrix
  Time summed over all CPUs for getting density from density matrix: real work       58.664 s, elapsed       62.657 s
  Integration grid: deviation in total charge (<rho> - N_e) =   7.673862E-13
  Pulay mixing of updated and previous charge densities.
  Renormalizing the density to the exact electron count on the 3D integration grid.
  | Formal number of electrons (from input files) :      74.0000000000
  | Integrated number of electrons on 3D grid     :      74.0000000027
  | Charge integration error                      :       0.0000000027
  | Normalization factor for density and gradient :       1.0000000000

  Evaluating partitioned Hartree potential by multipole expansion.
  | Original multipole sum: apparent total charge =  -0.747771E-14
  | Sum of charges compensated after spline to logarithmic grids =   0.487059E-07
  | Analytical far-field extrapolation by fixed multipoles:
  | Hartree multipole sum: apparent total charge =  -0.752691E-14
  Summing up the Hartree potential.
  Time summed over all CPUs for potential: real work        5.654 s, elapsed        5.909 s
  | RMS charge density error from multipole expansion :   0.463652E-02
  | Average real-space part of the electrostatic potential :      0.00032945 eV

  Integrating Hamiltonian matrix: batch-based integration.
  Time summed over all CPUs for integration: real work       25.427 s, elapsed       26.982 s

  Updating Kohn-Sham eigenvalues and eigenvectors using ELSI and the (modified) LAPACK eigensolver.

  Obtaining occupation numbers and chemical potential using ELSI.
  | Chemical potential (Fermi level):    -4.02857468 eV
  What follows are estimated values for band gap, HOMO, LUMO, etc.
  | They are estimated on a discrete k-point grid and not necessarily exact.
  | For converged numbers, create a DOS and/or band structure plot on a denser k-grid.

  Highest occupied state (VBM) at     -6.06555585 eV (relative to internal zero)
  | Occupation number:      2.00000000
  | K-point:       1 at    0.000000    0.000000    0.000000 (in units of recip. lattice)

  Lowest unoccupied state (CBM) at    -3.97929852 eV (relative to internal zero)
  | Occupation number:      0.00000000
  | K-point:       5 at    0.200000    0.600000    0.000000 (in units of recip. lattice)

  ESTIMATED overall HOMO-LUMO gap:      2.08625733 eV between HOMO at k-point 1 and LUMO at k-point 5
  | This appears to be an indirect band gap.
  | Smallest direct gap :      2.34435390 eV for k_point 8 at    0.200000    0.600000    0.000000 (in units of recip. lattice)
  The gap value is above 0.2 eV. Unless you are using a very sparse k-point grid,
  this system is most likely an insulator or a semiconductor.

  Total energy components:
  | Sum of eigenvalues            :       -2929.56197570 Ha      -79717.43733745 eV
  | XC energy correction          :        -175.59289376 Ha       -4778.12574759 eV
  | XC potential correction       :         228.30614698 Ha        6212.52634906 eV
  | Free-atom electrostatic energy:       -2012.01973442 Ha      -54749.84261476 eV
  | Hartree energy correction     :           1.33524229 Ha          36.33379138 eV
  | Entropy correction            :          -0.00000000 Ha          -0.00000000 eV
  | ---------------------------
  | Total energy                  :       -4887.53321461 Ha     -132996.54555937 eV
  | Total energy, T -> 0          :       -4887.53321461 Ha     -132996.54555937 eV  <-- do not rely on this value for anything but (periodic) metals
  | Electronic free energy        :       -4887.53321461 Ha     -132996.54555937 eV

  Derived energy quantities:
  | Kinetic energy                :        5018.20561659 Ha      136552.32253322 eV
  | Electrostatic energy          :       -9730.14593745 Ha     -264770.74234500 eV
  | Energy correction for multipole
  | error in Hartree potential    :          -0.00075008 Ha          -0.02041061 eV
  | Sum of eigenvalues per atom                           :      -26572.47911248 eV
  | Total energy (T->0) per atom                          :      -44332.18185312 eV  <-- do not rely on this value for anything but (periodic) metals
  | Electronic free energy per atom                       :      -44332.18185312 eV

  Self-consistency convergence accuracy:
  | Change of charge density      :  0.5347E-06
  | Change of sum of eigenvalues  : -0.3472E-05 eV
  | Change of total energy        : -0.7425E-10 eV

  Preliminary charge convergence reached. Turning off preconditioner.

  Writing Kohn-Sham eigenvalues.
  K-point:       1 at    0.000000    0.000000    0.000000 (in units of recip. lattice)

  State    Occupation    Eigenvalue [Ha]    Eigenvalue [eV]
      1       2.00000        -745.439405       -20284.43826
      2       2.00000        -103.396245        -2813.55498
      3       2.00000         -92.415763        -2514.76085
      4       2.00000         -92.415553        -2514.75515
      5       2.00000         -92.415553        -2514.75515
      6       2.00000         -88.658957        -2412.53297
      7       2.00000         -88.658957        -2412.53297
      8       2.00000         -17.620539         -479.47928
      9       2.00000         -14.040434         -382.05964
     10       2.00000         -14.039566         -382.03603
     11       2.00000         -14.039566         -382.03603
     12       2.00000          -8.224364         -223.79632
     13       2.00000          -8.224363         -223.79631
     14       2.00000          -8.223972         -223.78566
     15       2.00000          -8.223479         -223.77226
     16       2.00000          -8.223479         -223.77226
     17       2.00000          -7.764533         -211.28369
     18       2.00000          -7.764533         -211.28369
     19       2.00000          -5.734863         -156.05357
     20       2.00000          -5.734863         -156.05357
     21       2.00000          -5.734863         -156.05357
     22       2.00000          -5.734863         -156.05356
     23       2.00000          -5.732918         -156.00065
     24       2.00000          -5.732918         -156.00064
     25       2.00000          -2.455405          -66.81496
     26       2.00000          -1.505136          -40.95684
     27       2.00000          -1.496358          -40.71796
     28       2.00000          -1.496357          -40.71794
     29       2.00000          -0.736995          -20.05465
     30       2.00000          -0.690696          -18.79480
     31       2.00000          -0.425367          -11.57481
     32       2.00000          -0.310540           -8.45021
     33       2.00000          -0.310538           -8.45018
     34       2.00000          -0.287367           -7.81966
     35       2.00000          -0.270104           -7.34991
     36       2.00000          -0.270104           -7.34990
     37       2.00000          -0.222905           -6.06556
     38       0.00000          -0.115256           -3.13628
     39       0.00000          -0.115256           -3.13627
     40       0.00000          -0.107601           -2.92797
     41       0.00000          -0.107600           -2.92796
     42       0.00000           0.008011            0.21798
     43       0.00000           0.042768            1.16379
     44       0.00000           0.060234            1.63905
     45       0.00000           0.117046            3.18498
     46       0.00000           0.179434            4.88264
     47       0.00000           0.179436            4.88270
     48       0.00000           0.240391            6.54138
     49       0.00000           0.250891            6.82709

  What follows are estimated values for band gap, HOMO, LUMO, etc.
  | They are estimated on a discrete k-point grid and not necessarily exact.
  | For converged numbers, create a DOS and/or band structure plot on a denser k-grid.

  Highest occupied state (VBM) at     -6.06555585 eV (relative to internal zero)
  | Occupation number:      2.00000000
  | K-point:       1 at    0.000000    0.000000    0.000000 (in units of recip. lattice)

  Lowest unoccupied state (CBM) at    -3.97929852 eV (relative to internal zero)
  | Occupation number:      0.00000000
  | K-point:       5 at    0.200000    0.600000    0.000000 (in units of recip. lattice)

  ESTIMATED overall HOMO-LUMO gap:      2.08625733 eV between HOMO at k-point 1 and LUMO at k-point 5
  | This appears to be an indirect band gap.
  | Smallest direct gap :      2.34435390 eV for k_point 8 at    0.200000    0.600000    0.000000 (in units of recip. lattice)
  The gap value is above 0.2 eV. Unless you are using a very sparse k-point grid,
  this system is most likely an insulator or a semiconductor.

  Self-consistency cycle converged.

  End self-consistency iteration #    95       :  max(cpu_time)    wall_clock(cpu1)
  | Time for this iteration                    :        4.094 s           4.093 s
  | Charge density update                      :        2.624 s           2.624 s
  | Density mixing                             :        0.047 s           0.047 s
  | Hartree multipole update                   :        0.002 s           0.003 s
  | Hartree multipole summation                :        0.262 s           0.261 s
  | Integration                                :        1.143 s           1.144 s
  | Solution of K.-S. eqns.                    :        0.014 s           0.014 s
  | Total energy evaluation                    :        0.000 s           0.000 s

  Partial memory accounting:
  | Current value for overall tracked memory usage:
  |   Minimum:        8.438 MB (on task  0)
  |   Maximum:        8.575 MB (on task  1)
  |   Average:        8.513 MB
  | Peak value for overall tracked memory usage:
  |   Minimum:       45.815 MB (on task  5 after allocating gradient_basis_wave)
  |   Maximum:       48.692 MB (on task  2 after allocating gradient_basis_wave)
  |   Average:       47.419 MB
  | Largest tracked array allocation so far:
  |   Minimum:       21.945 MB (hamiltonian_shell on task  5)
  |   Maximum:       24.092 MB (hamiltonian_shell on task  2)
  |   Average:       23.187 MB
  Note:  These values currently only include a subset of arrays which are explicitly tracked.
  The "true" memory usage will be greater.
------------------------------------------------------------

  Energy and forces in a compact form:
  | Total energy uncorrected      :         -0.132996545559368E+06 eV
  | Total energy corrected        :         -0.132996545559368E+06 eV  <-- do not rely on this value for anything but (periodic) metals
  | Electronic free energy        :         -0.132996545559368E+06 eV

  ------------------------------------ 
  Start decomposition of the XC Energy 
  ------------------------------------ 
  X and C from original XC functional choice 
  Hartree-Fock Energy :          0.000000000 Ha              0.000000000 eV
  X Energy            :       -172.112331745 Ha          -4683.414836296 eV
  C Energy            :         -3.480562016 Ha            -94.710911295 eV
  Total XC Energy     :       -175.592893761 Ha          -4778.125747591 eV
  ------------------------------------ 
  LDA X and C from self-consistent density 
  X Energy LDA        :       -162.564022783 Ha          -4423.592129817 eV
  C Energy LDA        :         -6.409127786 Ha           -174.401240500 eV
  ------------------------------------ 
  End decomposition of the XC Energy 
  ------------------------------------ 

------------------------------------------------------------

------------------------------------------------------------------------------
  Final output of selected total energy values:

  The following output summarizes some interesting total energy values
  at the end of a run (AFTER all relaxation, molecular dynamics, etc.).

  | Total energy of the DFT / Hartree-Fock s.c.f. calculation      :        -132996.545559368 eV
  | Final zero-broadening corrected energy (caution - metals only) :        -132996.545559368 eV
  | For reference only, the value of 1 Hartree used in FHI-aims is :             27.211384500 eV
  | For reference only, the overall average (free atom contribution
  | + realspace contribution) of the electrostatic potential after
  | s.c.f. convergence is                                          :             -1.088036876 eV

  Before relying on these values, please be sure to understand exactly which
  total energy value is referred to by a given number. Different objects may
  all carry the same name 'total energy'. Definitions:

  Total energy of the DFT / Hartree-Fock s.c.f. calculation:
  | Note that this energy does not include ANY quantities calculated after the
  | s.c.f. cycle, in particular not ANY RPA, MP2, etc. many-body perturbation terms.

  Final zero-broadening corrected energy:
  | For metallic systems only, a broadening of the occupation numbers at the Fermi
  | level can be extrapolated back to zero broadening by an electron-gas inspired
  | formula. For all systems that are not real metals, this value can be
  | meaningless and should be avoided.

------------------------------------------------------------------------------
  Methods described in the following list of references were used in this FHI-aims run.
  If you publish the results, please make sure to cite these reference if they apply.
  FHI-aims is an academic code, and for our developers (often, Ph.D. students
  and postdocs), scientific credit in the community is essential.
  Thank you for helping us!

  For any use of FHI-aims, please cite:

    Volker Blum, Ralf Gehrke, Felix Hanke, Paula Havu, Ville Havu,
    Xinguo Ren, Karsten Reuter, and Matthias Scheffler
    'Ab initio molecular simulations with numeric atom-centered orbitals'
    Computer Physics Communications 180, 2175-2196 (2009)
    http://dx.doi.org/10.1016/j.cpc.2009.06.022


  The provided symmetry information was generated with SPGlib:

    Atsushi Togo, Yusuke Seto, Dimitar Pashov
    SPGlib 1.7.3 obtained from http://spglib.sourceforge.net
    Copyright (C) 2008 Atsushi Togo


  The ELSI infrastructure was used in your run to solve the Kohn-Sham electronic structure.
  Please check out http://elsi-interchange.org to learn more.
  If scalability is important for your project, please acknowledge ELSI by citing:

    V. W-z. Yu, F. Corsetti, A. Garcia, W. P. Huhn, M. Jacquelin, W. Jia,
    B. Lange, L. Lin, J. Lu, W. Mi, A. Seifitokaldani, A. Vazquez-Mayagoitia,
    C. Yang, H. Yang, and V. Blum
    'ELSI: A unified software interface for Kohn-Sham electronic structure solvers'
    Computer Physics Communications 222, 267-285 (2018).
    http://dx.doi.org/10.1016/j.cpc.2017.09.007


  For the real-space grid partitioning and parallelization used in this calculation, please cite:

    Ville Havu, Volker Blum, Paula Havu, and Matthias Scheffler,
    'Efficient O(N) integration for all-electron electronic structure calculation'
    'using numerically tabulated basis functions'
    Journal of Computational Physics 228, 8367-8379 (2009).
    http://dx.doi.org/10.1016/j.jcp.2009.08.008

  Of course, there are many other important community references, e.g., those cited in the
  above references. Our list is limited to references that describe implementations in the
  FHI-aims code. The reason is purely practical (length of this list) - please credit others as well.

 * A warning was issued further up regarding the CPU load.
   Some CPUs do not participate in the eigenvalue solution.
   In corner cases, this may be the correct behavior. Otherwise,
   consider using a scalapack/elpa version of the code for a parallel treatment.

   One or more s.c.f. cycles took more than 50 s.c.f. iterations.
   It might be worth adjusting your convergence settings. For example,
   metals need a larger broadening and a smaller "charge_mix_param" value than semiconductors.

------------------------------------------------------------
          Leaving FHI-aims.
          Date     :  20200319, Time     :  194802.257

          Computational steps:
          | Number of self-consistency cycles          :           95
          | Number of SCF (re)initializations          :            1

          Detailed time accounting                     :  max(cpu_time)    wall_clock(cpu1)
          | Total time                                 :      395.168 s         395.475 s
          | Preparation time                           :        0.531 s           0.551 s
          | Boundary condition initalization           :        1.789 s           1.790 s
          | Grid partitioning                          :        0.562 s           0.563 s
          | Preloading free-atom quantities on grid    :        0.023 s           0.023 s
          | Free-atom superposition energy             :        0.015 s           0.015 s
          | Total time for integrations                :      110.763 s         110.758 s
          | Total time for solution of K.-S. equations :        1.398 s           1.416 s
          | Total time for density update              :      249.754 s         249.744 s
          | Total time for mixing & preconditioning    :        4.583 s           4.583 s
          | Total time for Hartree multipole update    :        0.207 s           0.211 s
          | Total time for Hartree multipole sum       :       24.925 s          24.924 s
          | Total time for total energy evaluation     :        0.009 s           0.007 s
          | Total time for scaled ZORA corrections     :        0.000 s           0.000 s

          Partial memory accounting:
          | Residual value for overall tracked memory usage across tasks:     0.000000 MB (should be 0.000000 MB)
          | Peak values for overall tracked memory usage:
          |   Minimum:       45.815 MB (on task  5 after allocating gradient_basis_wave)
          |   Maximum:       48.692 MB (on task  2 after allocating gradient_basis_wave)
          |   Average:       47.419 MB
          | Largest tracked array allocation:
          |   Minimum:       21.945 MB (hamiltonian_shell on task  5)
          |   Maximum:       24.092 MB (hamiltonian_shell on task  2)
          |   Average:       23.187 MB
          Note:  These values currently only include a subset of arrays which are explicitly tracked.
          The "true" memory usage will be greater.

          Have a nice day.
------------------------------------------------------------
