  MPI-parallelism will be employed.
------------------------------------------------------------
          Invoking FHI-aims ...
          Version 171221_1
          Compiled on 2018/11/06 at 11:18:49 on host headnode.

          When using FHI-aims, please cite the following reference:

          Volker Blum, Ralf Gehrke, Felix Hanke, Paula Havu,
          Ville Havu, Xinguo Ren, Karsten Reuter, and Matthias Scheffler,
          'Ab Initio Molecular Simulations with Numeric Atom-Centered Orbitals',
          Computer Physics Communications 180, 2175-2196 (2009)

          For any questions about FHI-aims, please visit the aimsclub website
          with its forums and wiki. Contributions to both the forums and the
          wiki are warmly encouraged - they are for you, and everyone is welcome there.

------------------------------------------------------------



  Date     :  20191125, Time     :  104018.092
  Time zero on CPU 1             :   0.280000000000000E+00  s.
  Internal wall clock time zero  :           343910418.092  s.

  FHI-aims created a unique identifier for this run for later identification
  aims_uuid : 3D43971A-E854-4CF1-A67A-137FCC19D641

  Using       80 parallel tasks.
  Task        0 on host t012 reporting.
  Task        1 on host t012 reporting.
  Task        2 on host t012 reporting.
  Task        3 on host t012 reporting.
  Task        4 on host t012 reporting.
  Task        5 on host t012 reporting.
  Task        6 on host t012 reporting.
  Task        7 on host t012 reporting.
  Task        8 on host t012 reporting.
  Task        9 on host t012 reporting.
  Task       10 on host t012 reporting.
  Task       11 on host t012 reporting.
  Task       12 on host t012 reporting.
  Task       13 on host t012 reporting.
  Task       14 on host t012 reporting.
  Task       15 on host t012 reporting.
  Task       16 on host t012 reporting.
  Task       17 on host t012 reporting.
  Task       18 on host t012 reporting.
  Task       19 on host t012 reporting.
  Task       20 on host t011 reporting.
  Task       21 on host t011 reporting.
  Task       22 on host t011 reporting.
  Task       23 on host t011 reporting.
  Task       24 on host t011 reporting.
  Task       25 on host t011 reporting.
  Task       26 on host t011 reporting.
  Task       27 on host t011 reporting.
  Task       28 on host t011 reporting.
  Task       29 on host t011 reporting.
  Task       30 on host t011 reporting.
  Task       31 on host t011 reporting.
  Task       32 on host t011 reporting.
  Task       33 on host t011 reporting.
  Task       34 on host t011 reporting.
  Task       35 on host t011 reporting.
  Task       36 on host t011 reporting.
  Task       37 on host t011 reporting.
  Task       38 on host t011 reporting.
  Task       39 on host t011 reporting.
  Task       40 on host t010 reporting.
  Task       41 on host t010 reporting.
  Task       42 on host t010 reporting.
  Task       43 on host t010 reporting.
  Task       44 on host t010 reporting.
  Task       45 on host t010 reporting.
  Task       46 on host t010 reporting.
  Task       47 on host t010 reporting.
  Task       48 on host t010 reporting.
  Task       49 on host t010 reporting.
  Task       50 on host t010 reporting.
  Task       51 on host t010 reporting.
  Task       52 on host t010 reporting.
  Task       53 on host t010 reporting.
  Task       54 on host t010 reporting.
  Task       55 on host t010 reporting.
  Task       56 on host t010 reporting.
  Task       57 on host t010 reporting.
  Task       58 on host t010 reporting.
  Task       59 on host t010 reporting.
  Task       60 on host t009 reporting.
  Task       61 on host t009 reporting.
  Task       62 on host t009 reporting.
  Task       63 on host t009 reporting.
  Task       64 on host t009 reporting.
  Task       65 on host t009 reporting.
  Task       66 on host t009 reporting.
  Task       67 on host t009 reporting.
  Task       68 on host t009 reporting.
  Task       69 on host t009 reporting.
  Task       70 on host t009 reporting.
  Task       71 on host t009 reporting.
  Task       72 on host t009 reporting.
  Task       73 on host t009 reporting.
  Task       74 on host t009 reporting.
  Task       75 on host t009 reporting.
  Task       76 on host t009 reporting.
  Task       77 on host t009 reporting.
  Task       78 on host t009 reporting.
  Task       79 on host t009 reporting.

  Performing system and environment tests:
  | Environment variable OMP_NUM_THREADS correctly set to 1.
  | Stacksize not measured: no C compiler
  | Checking for scalapack...
  | Testing pdtran()...
  | All pdtran() tests passed.

  Obtaining array dimensions for all initial allocations:
  
  -----------------------------------------------------------------------
  Parsing control.in (first pass over file, find array dimensions only).
  The contents of control.in will be repeated verbatim below
  unless switched off by setting 'verbatim_writeout .false.' .
  in the first line of control.in .
  -----------------------------------------------------------------------
  
  #===============================================================================
  # FHI-aims file: ./control.in
  # Created using the Atomic Simulation Environment (ASE)
  # Fri Nov 22 16:42:51 2019
  #
  # List of parameters used to initialize the calculator:
  #     species_dir : /chemsoft/FHI-aims/stable/species_defaults/tight
  #     k_grid : [18, 18, 1]
  #     adjust_scf : once 2
  #     spin : none
  #     xc : pbe
  #     relativistic : ('atomic_zora', 'scalar')
  #===============================================================================
  k_grid                             18 18 1
  adjust_scf                         once 2
  ### band structure section
  output band 0.000000 0.000000 0.000000    0.500000 0.000000 0.000000  31  G M
  output band 0.500000 0.000000 0.000000    0.333333 0.333333 0.000000  31  M K
  output band 0.333333 0.333333 0.000000    0.000000 0.000000 0.000000  31  K G
  spin                               collinear
  fixed_spin_moment 3
  xc                                 pbe
  relativistic                       atomic_zora scalar
  include_spin_orbit
  output atom_proj_dos  -10 0 300 0.05
  dos_kgrid_factors 4 4 4
  #===============================================================================
  
  ################################################################################
  #
  #  FHI-aims code project
  # Volker Blum, Fritz Haber Institute Berlin, 2010
  #
  #  Suggested "tight" defaults for Mn atom (to be pasted into control.in file)
  #
  #  2016/04/21, VB:
  #  Comment. Fe and Mn are outliers in the "Delta project",
  #  https://molmod.ugent.be/deltacodesdft . Not by much; in principle
  #  consistent with a reasonable designation "tight".
  #
  #  However, uncommenting the "d" and "p" function in tier2 of Fe picks up
  #  most of the missing total energy of a Fe bulk in DFT-GGA. This is similar
  #  to our "tight" defaults for Ni and Co.
  #
  #  These two basis functions can be enabled by hand below if needed. I am
  #  considering making them part of the default; what is keeping me is the
  #  question if this warrants the additional significant CPU time cost
  #  for every user expecting "tight".
  #
  ################################################################################
    species        Mn
  #     global species definitions
      nucleus             25
      mass                54.938045
  #
      l_hartree           6
  #
      cut_pot             4.0          2.0  1.0
      basis_dep_cutoff    1e-4
  #
      radial_base         50 7.0
      radial_multiplier   2
      angular_grids       specified
        division   0.2623   50
        division   0.5927  110
        division   0.9156  194
        division   1.1008  302
        division   1.2671  434
  #      division   1.5167  590
  #      division   1.7111  770
  #      division   1.8945  974
  #      division   2.7372 1202
        outer_grid  434
  ################################################################################
  #
  #  Definition of "minimal" basis
  #
  ################################################################################
  #     valence basis states
      valence      4  s   2.
      valence      3  p   6.
      valence      3  d   5.
  #     ion occupancy
      ion_occ      4  s   1.
      ion_occ      3  p   6.
      ion_occ      3  d   4.
  ################################################################################
  #
  #  Suggested additional basis functions. For production calculations,
  #  uncomment them one after another (the most important basis functions are
  #  listed first).
  #
  #  Constructed for dimers: 1.40 A, 1.60 A, 2.10 A, 2.75 A, 3.75 A
  #
  ################################################################################
  #  "First tier" - improvements: -466.21 meV to -15.27 meV
       hydro 4 f 9.6
       hydro 3 d 3.2
       hydro 2 p 2
       hydro 5 g 13.6
       hydro 3 s 3.3
  #  "Second tier" - improvements: -21.45 meV to -1.55 meV
       hydro 3 d 6
       hydro 6 h 19.2
       hydro 4 f 6.4
       hydro 4 f 17.2
       hydro 3 p 3.1
       hydro 3 d 6.2
       hydro 5 g 10.8
       hydro 3 s 3.8
  #  "Third tier" - improvements: -1.38 meV to -0.13 meV
  #     hydro 5 p 8.6   -1.38 meV
  #     hydro 6 h 16    -0.73 meV
  #     hydro 3 d 10.8  -0.43 meV
  #     hydro 5 f 6.8   # forced: -0.26 meV
  #     hydro 5 g 6.4   # forced: -0.21 meV
  #     hydro 5 s 9.8   # forced: -0.13 meV
  #  Further functions: improvements -0.32 meV and below
  #     hydro 3 p 19.6  # -0.32 meV
  #     hydro 5 f 28.4  # -0.20 meV
  #     hydro 4 f 26    # -0.08 meV
  #     hydro 3 p 3.5
  #     hydro 5 g 14.8
  #     hydro 5 s 9
  #     hydro 4 p 16.8
  #     hydro 6 h 18
  #     hydro 4 d 13.6
  ################################################################################
  #
  #  FHI-aims code project
  # Volker Blum, Fritz Haber Institute Berlin, 2009
  #
  #  Suggested "tight" defaults for S atom (to be pasted into control.in file)
  #
  #  Revised Jan 04, 2011, following tests (SiC) done by Lydia Nemec:
  #     d and g functions of tier 2 now enabled by default.
  #
  ################################################################################
    species        S
  #     global species definitions
      nucleus             16
      mass                32.065
  #
      l_hartree           6
  #
      cut_pot             4.0          2.0  1.0
      basis_dep_cutoff    1e-4
  #
      radial_base         44 7.0
      radial_multiplier   2
      angular_grids       specified
        division   0.4665  110
        division   0.5810  194
        division   0.7139  302
        division   0.8274  434
  #      division   0.9105  590
  #      division   1.0975  770
  #      division   1.2028  974
  #      outer_grid  974
        outer_grid  434
  ################################################################################
  #
  #  Definition of "minimal" basis
  #
  ################################################################################
  #     valence basis states
      valence      3  s   2.
      valence      3  p   4.
  #     ion occupancy
      ion_occ      3  s   1.
      ion_occ      3  p   3.
  ################################################################################
  #
  #  Suggested additional basis functions. For production calculations,
  #  uncomment them one after another (the most important basis functions are
  #  listed first).
  #
  #  Constructed for dimers: 1.6 A, 1.9 A, 2.5 A, 3.25 A, 4.0 A
  #
  ################################################################################
  #  "First tier" - improvements: -652.81 meV to -45.53 meV
       ionic 3 d auto
       hydro 2 p 1.8
       hydro 4 f 7
       ionic 3 s auto
  #  "Second tier" - improvements: -30.20 meV to -1.74 meV
       hydro 4 d 6.2
       hydro 5 g 10.8
       hydro 4 p 4.9
       hydro 5 f 10
       hydro 1 s 0.8
  #  "Third tier" - improvements: -1.04 meV to -0.20 meV
  #     hydro 3 d 3.9
  #     hydro 3 d 2.7
  #     hydro 5 g 12
  #     hydro 4 p 10.4
  #     hydro 5 f 12.4
  #     hydro 2 s 1.9
  #  "Fourth tier" - improvements: -0.35 meV to -0.06 meV
  #     hydro 4 d 10.4
  #     hydro 4 p 7.2
  #     hydro 4 d 10
  #     hydro 5 g 19.2
  #     hydro 4 s 12
  #
  ################################################################################
  #
  # For methods that use the localized form of the "resolution of identity" for
  # the two-electron Coulomb operator (RI_method LVL), particularly Hartree-Fock and
  # hybrid density functional calculations, the highest accuracy can be obtained by
  # uncommenting the line beginning with "for_aux"  below, thus adding an extra g radial
  # function to the construction of the product basis set for the expansion.
  # See Ref. New J. Phys. 17, 093020 (2015) for more information, particularly Figs. 1 and 6.
  #
  ################################################################################
  #
  # for_aux hydro 5 g 6.0
  
  -----------------------------------------------------------------------
  Completed first pass over input file control.in .
  -----------------------------------------------------------------------
  
  
  -----------------------------------------------------------------------
  Parsing geometry.in (first pass over file, find array dimensions only).
  The contents of geometry.in will be repeated verbatim below
  unless switched off by setting 'verbatim_writeout .false.' .
  in the first line of geometry.in .
  -----------------------------------------------------------------------
  
  #=======================================================
  # FHI-aims file: ./geometry.in
  # Created using the Atomic Simulation Environment (ASE)
  # Fri Nov 22 16:42:51 2019
  #=======================================================
  lattice_vector 3.3499926220471199 0.0000000000000000 0.0000000000000000
  lattice_vector -1.6749963110235599 2.9011787131832500 0.0000000000000000
  lattice_vector 0.0000000000000000 0.0000000000000000 100.0000000000000000
  atom -0.0000000000000000 0.0000000000000000 8.8875854099999998 Mn
  initial_moment         3.000000
  atom 1.6749963100000000 0.9670595700000000 10.2083376599999998 S
  initial_moment         0.000000
  atom -0.0000000000000000 1.9341191400000000 7.5668331200000001 S
  initial_moment         0.000000
  
  -----------------------------------------------------------------------
  Completed first pass over input file geometry.in .
  -----------------------------------------------------------------------
  

  Basic array size parameters:
  | Number of species                 :        2
  | Number of atoms                   :        3
  | Number of lattice vectors         :        3
  | Max. basis fn. angular momentum   :        5
  | Max. atomic/ionic basis occupied n:        4
  | Max. number of basis fn. types    :        3
  | Max. radial fns per species/type  :       13
  | Max. logarithmic grid size        :     1394
  | Max. radial integration grid size :      101
  | Max. angular integration grid size:      434
  | Max. angular grid division number :        8
  | Radial grid for Hartree potential :     1394
  | Number of spin channels           :        2

------------------------------------------------------------
          Reading file control.in.
------------------------------------------------------------
  Found k-point grid:        18        18         1
  S.C.F. convergence parameters will be adjusted in iteration number     2 of the first full s.c.f. cycle only.

  Plot band    1
  | begin  0.000000  0.000000  0.000000
  | end    0.500000  0.000000  0.000000
  | number of points:   31

  Plot band    2
  | begin  0.500000  0.000000  0.000000
  | end    0.333333  0.333333  0.000000
  | number of points:   31

  Plot band    3
  | begin  0.333333  0.333333  0.000000
  | end    0.000000  0.000000  0.000000
  | number of points:   31
  Spin treatment: Spin density functional theory - collinear spins.
  Fixed spin moment calculation, N_up - N_down =      3.00000000
  XC: Using PBE gradient-corrected functionals.
  Scalar relativistic treatment of kinetic energy: on-site free-atom approximation to ZORA.
  Calculating non-self-consistent second-variational spin-orbit coupling after scf-cycle
  You have request a SOC run with spin-polarization.
  symmetry_reduced_k_grid will be turned off.
  Calculating atom-projected density of states with
  | energy interval :-10.000000  0.000000
  | points & broadening :   300  0.050000
  Found k-point grid multipliers for perturbative DOS :         4         4         4
 
  Reading configuration options for species Mn                  .
  | Found nuclear charge :  25.0000
  | Found atomic mass :    54.9380450000000      amu
  | Found l_max for Hartree potential  :   6
  | Found cutoff potl. onset [A], width [A], scale factor :    4.00000    2.00000    1.00000
  | Threshold for basis-dependent cutoff potential is   0.100000E-03
  | Found data for basic radial integration grid :    50 points, outermost radius =    7.000 A
  | Found multiplier for basic radial grid :   2
  | Found angular grid specification: user-specified.
  | Specified grid contains     6 separate shells.
  | Check grid settings after all constraints further below.
  | Found free-atom valence shell :  4 s   2.000
  | Found free-atom valence shell :  3 p   6.000
  | Found free-atom valence shell :  3 d   5.000
  | Found free-ion valence shell :  4 s   1.000
  | Found free-ion valence shell :  3 p   6.000
  | Found free-ion valence shell :  3 d   4.000
  | Found hydrogenic basis function :  4 f   9.600
  | Found hydrogenic basis function :  3 d   3.200
  | Found hydrogenic basis function :  2 p   2.000
  | Found hydrogenic basis function :  5 g  13.600
  | Found hydrogenic basis function :  3 s   3.300
  | Found hydrogenic basis function :  3 d   6.000
  | Found hydrogenic basis function :  6 h  19.200
  | Found hydrogenic basis function :  4 f   6.400
  | Found hydrogenic basis function :  4 f  17.200
  | Found hydrogenic basis function :  3 p   3.100
  | Found hydrogenic basis function :  3 d   6.200
  | Found hydrogenic basis function :  5 g  10.800
  | Found hydrogenic basis function :  3 s   3.800
  Species Mn                  : Missing cutoff potential type.
  Defaulting to exp(1/x)/(1-x)^2 type cutoff potential.
  Species Mn: No 'logarithmic' tag. Using default grid for free atom:
  | Default logarithmic grid data [bohr] : 0.1000E-03 0.1000E+03 0.1012E+01
  Species Mn: On-site basis accuracy parameter (for Gram-Schmidt orthonormalisation) not specified.
  Using default value basis_acc =  0.1000000E-03.
  Species Mn                  : Using default innermost maximum threshold i_radial=  2 for radial functions.
  Species Mn                  : Default cutoff onset for free atom density etc. : 0.40000000E+01 AA.
  Species Mn                  : Basic radial grid will be enhanced according to radial_multiplier =   2, to contain   101 grid points.
 
  Reading configuration options for species S                   .
  | Found nuclear charge :  16.0000
  | Found atomic mass :    32.0650000000000      amu
  | Found l_max for Hartree potential  :   6
  | Found cutoff potl. onset [A], width [A], scale factor :    4.00000    2.00000    1.00000
  | Threshold for basis-dependent cutoff potential is   0.100000E-03
  | Found data for basic radial integration grid :    44 points, outermost radius =    7.000 A
  | Found multiplier for basic radial grid :   2
  | Found angular grid specification: user-specified.
  | Specified grid contains     5 separate shells.
  | Check grid settings after all constraints further below.
  | Found free-atom valence shell :  3 s   2.000
  | Found free-atom valence shell :  3 p   4.000
  | Found free-ion valence shell :  3 s   1.000
  | Found free-ion valence shell :  3 p   3.000
  | Found ionic basis function :  3 d , default cutoff radius.
  | Found hydrogenic basis function :  2 p   1.800
  | Found hydrogenic basis function :  4 f   7.000
  | Found ionic basis function :  3 s , default cutoff radius.
  | Found hydrogenic basis function :  4 d   6.200
  | Found hydrogenic basis function :  5 g  10.800
  | Found hydrogenic basis function :  4 p   4.900
  | Found hydrogenic basis function :  5 f  10.000
  | Found hydrogenic basis function :  1 s   0.800
  Species S                   : Missing cutoff potential type.
  Defaulting to exp(1/x)/(1-x)^2 type cutoff potential.
  Species S : No 'logarithmic' tag. Using default grid for free atom:
  | Default logarithmic grid data [bohr] : 0.1000E-03 0.1000E+03 0.1012E+01
  | Will include ionic basis functions of  2.0-fold positive S                    ion.
  Species S : On-site basis accuracy parameter (for Gram-Schmidt orthonormalisation) not specified.
  Using default value basis_acc =  0.1000000E-03.
  Species S                   : Using default innermost maximum threshold i_radial=  2 for radial functions.
  Species S                   : Default cutoff onset for free atom density etc. : 0.40000000E+01 AA.
  Species S                   : Basic radial grid will be enhanced according to radial_multiplier =   2, to contain    89 grid points.
 
  Finished reading input file 'control.in'. Consistency checks are next.
 
  MPI_IN_PLACE appears to work with this MPI implementation.
  | Keeping use_mpi_in_place .true. (see manual).
  Target number of points in a grid batch is not set. Defaulting to  100
  Method for grid partitioning is not set. Defaulting to parallel hash+maxmin partitioning.
  Batch size limit is not set. Defaulting to    200
  By default, will store active basis functions for each batch.
  If in need of memory, prune_basis_once .false. can be used to disable this option.
  communication_type for Hartree potential was not specified.
  Defaulting to calc_hartree .
  Defaulting to Pulay charge density mixer.
  Pulay mixer: Number of relevant iterations not set.
  Defaulting to    8 iterations.
  Pulay mixer: Number of initial linear mixing iterations not set.
  Defaulting to    0 iterations.
  Work space size for distributed Hartree potential not set.
  Defaulting to   0.200000E+03 MB.
  Mixing parameter for charge density mixing has not been set.
  Using default: charge_mix_param =     0.0500.
  The mixing parameter will be adjusted in iteration number     2 of the first full s.c.f. cycle only.
  Mixing parameter for spin density mixing has not been set.
  Using charge_mix_param as default:     0.0500.
  Algorithm-dependent basis array size parameters:
  | n_max_pulay                         :        8
 * Notice: The s.c.f. convergence criterion sc_accuracy_rho was not provided.
 * We used to stop in this case, and ask the user to provide reasonable
 * scf convergence criteria. However, this led some users to employ criteria
 * that led to extremely long run times, e.g., for simple relaxation.
 * We now preset a default value for sc_accuracy_rho if it is not set.
 * You may still wish to check if this setting is too tight or too loose for your needs.
 * Based on n_atoms, FHI-aims chose sc_accuracy_rho =  0.100000E-05 .
  Maximum number of self-consistency iterations not provided.
  Presetting  1000 iterations.
  Presetting      1001 iterations before the initial mixing cycle
  is restarted anyway using the sc_init_iter criterion / keyword.
  Presetting a factor      1.000 between actual scf density residual
  and density convergence criterion sc_accuracy_rho below which sc_init_iter
  takes no effect.
 * No s.c.f. convergence criteria (sc_accuracy_*) were provided in control.in.
 * The run will proceed with a reasonable default guess, but please check whether.
 * the s.c.f. cycles seem to take too much or too little time.
  Calculation of forces was not defined in control.in. No forces will be calculated.
  Geometry relaxation not requested: no relaxation will be performed.
  No accuracy limit for integral partition fn. given. Defaulting to  0.1000E-14.
  No threshold value for u(r) in integrations given. Defaulting to  0.1000E-05.
  No occupation type (smearing scheme) given. Defaulting to Gaussian broadening, width =  0.1000E-01 eV.
  The width will be adjusted in iteration number     2 of the first full s.c.f. cycle only.
  S.C.F. convergence parameters will be adjusted in iteration number     2 of the first full s.c.f. cycle only.
  No accuracy for occupation numbers given. Defaulting to  0.1000E-12.
  No threshold value for occupation numbers given. Defaulting to  0.0000E+00.
  No accuracy for fermi level given. Defaulting to  0.1000E-19.
  Maximum # of iterations to find E_F not set. Defaulting to  200.
  Preferred method for the eigenvalue solver ('KS_method') not specified in 'control.in'.
  Defaulting to serial version, 'lapack_fast', since more k-points than CPUs available.
  Will not use alltoall communication since running on < 1024 CPUs.
  Threshold for basis singularities not set.
  Default threshold for basis singularities:  0.1000E-04
  partition_type (choice of integration weights) for integrals was not specified.
  | Using a version of the partition function of Stratmann and coworkers ('stratmann_smoother').
  | At each grid point, the set of atoms used to build the partition table is smoothly restricted to
  | only those atoms whose free-atom density would be non-zero at that grid point.
  Partitioning for Hartree potential was not defined. Using partition_type for integrals.
  | Adjusted default value of keyword multip_moments_threshold to:       0.10000000E-11
  | This value may affect high angular momentum components of the Hartree potential in periodic systems.
  Angular momentum expansion for Kerker preconditioner not set explicitly.
  | Using default value of   0
  No explicit requirement for turning off preconditioner.
  | By default, it will be turned off when the charge convergence reaches
  | sc_accuracy_rho  =   0.100000E-05
  No special mixing parameter while Kerker preconditioner is on.
  Using default: charge_mix_param =     0.0500.
  No q(lm)/r^(l+1) cutoff set for long-range Hartree potential.
  | Using default value of  0.100000E-09 .
  | Verify using the multipole_threshold keyword.
  Defaulting to new monopole extrapolation.
  Density update method: automatic selection selected.
  Using density matrix based charge density update.
  Using density matrix based charge density update.
  Using packed matrix style: index .
  Defaulting to use full k-point grid (no symmetry reduction).
 * Warning. Found "dos_kgrid_factors" request but neither a DOS nor
 * postscf_eigenvalues are requested. dos_kgrid_factors will be ignored.
------------------------------------------------------------


------------------------------------------------------------
          Reading geometry description geometry.in.
------------------------------------------------------------
  Input structure read successfully.
  The structure contains        3 atoms,  and a total of         57.000 electrons.

  Input geometry:
  | Unit cell:
  |        3.34999262        0.00000000        0.00000000
  |       -1.67499631        2.90117871        0.00000000
  |        0.00000000        0.00000000      100.00000000
  | Atomic structure:
  |       Atom                x [A]            y [A]            z [A]
  |    1: Species Mn            0.00000000        0.00000000        8.88758541
  |    2: Species S             1.67499631        0.96705957       10.20833766
  |    3: Species S             0.00000000        1.93411914        7.56683312

  Lattice parameters for 3D lattice (in Angstroms) :     3.349993    3.349993  100.000000
  Angle(s) between unit vectors (in degrees)      :    90.000000   90.000000  120.000000

  |

  | The smallest distance between any two atoms is         2.34205110 AA.
  |
  | The first atom of this pair is atom number                      2 .
  | The second atom of this pair is atom number                     1 .
  | Wigner-Seitz cell of the first atom image           1     0     0 .
  | (The Wigner-Seitz cell of the second atom is 0 0 0  by definition.)

  Quantities derived from the lattice vectors:
  | Reciprocal lattice vector 1:  1.875582  1.082868  0.000000
  | Reciprocal lattice vector 2: -0.000000  2.165735  0.000000
  | Reciprocal lattice vector 3:  0.000000  0.000000  0.062832
  | Unit cell volume                               :   0.971893E+03  A^3

  Range separation radius for Ewald summation (hartree_convergence_parameter):      5.00000000 bohr.

  Fractional coordinates:
                         L1                L2                L3
       atom_frac         0.00000000        0.00000000        0.08887585  Mn
       atom_frac         0.66666667        0.33333333        0.10208338  S
       atom_frac         0.33333333        0.66666667        0.07566833  S

  Initial moments and charges:
  |  Atom   Moment         Charge        Species
  |     1   0.300000E+01   0.000000E+00   Mn
  |     2   0.000000E+00   0.000000E+00   S
  |     3   0.000000E+00   0.000000E+00   S

  Number of empty states per atom not set in control.in - providing a guess from actual geometry.
  | Total number of empty states used during s.c.f. cycle:       12
  If you use a very high smearing, use empty_states (per atom!) in control.in to increase this value.

  Structure-dependent array size parameters: 
  | Number of distinct atom types in initial rho :        2
  | Maximum number of distinct radial functions  :       34
  | Maximum number of basis functions            :      188
  | Number of Kohn-Sham states (occupied + empty):       41
------------------------------------------------------------

------------------------------------------------------------
          Preparing all fixed parts of the calculation.
------------------------------------------------------------
  Determining machine precision:
    2.225073858507201E-308
  Setting up grids for atomic and cluster calculations.

  Creating wave function, potential, and density for free atoms.

  Species: Mn

  List of occupied orbitals and eigenvalues:
    n    l              occ      energy [Ha]    energy [eV]
    1    0           2.0000      -238.096457     -6478.9342
    2    0           2.0000       -27.365433      -744.6513
    3    0           2.0000        -3.152827       -85.7928
    4    0           2.0000        -0.184961        -5.0330
    2    1           6.0000       -23.177195      -630.6836
    3    1           6.0000        -2.002774       -54.4983
    3    2           5.0000        -0.245871        -6.6905


  Species: S

  List of occupied orbitals and eigenvalues:
    n    l              occ      energy [Ha]    energy [eV]
    1    0           2.0000       -88.680731     -2413.1255
    2    0           2.0000        -7.781719      -211.7513
    3    0           2.0000        -0.633662       -17.2428
    2    1           6.0000        -5.751976      -156.5192
    3    1           4.0000        -0.257086        -6.9957

  Spin-polarized or charged system:
  Charge density initialized according to selected moments and charges.

  Creating spin-polarized density from free atoms.

  Species: Mn
  Charge:   0.000000
  Moment:   3.000000

  List of occupied orbitals and eigenvalues:
    n    l      energy [Ha]    energy [eV]    occupation
  Spin-up
    1    0      -238.082071     -6478.5428     1.00000000
    2    0       -27.372667      -744.8482     1.00000000
    3    0        -3.196132       -86.9712     1.00000000
    4    0        -0.194676        -5.2974     1.00000000
    2    1       -23.179067      -630.7345     3.00000000
    3    1        -2.045474       -55.6602     3.00000000
    3    2        -0.284355        -7.7377     4.00000000
  Spin-down
    1    0      -238.082321     -6478.5496     1.00000000
    2    0       -27.326293      -743.5863     1.00000000
    3    0        -3.082044       -83.8667     1.00000000
    4    0        -0.172228        -4.6866     1.00000000
    2    1       -23.143793      -629.7746     3.00000000
    3    1        -1.933711       -52.6190     3.00000000
    3    2        -0.186704        -5.0805     1.00000000


  Species: S
  Charge:   0.000000
  Moment:   0.000000

  List of occupied orbitals and eigenvalues:
    n    l      energy [Ha]    energy [eV]    occupation
  Spin-up
    1    0       -88.680731     -2413.1255     1.00000000
    2    0        -7.781719      -211.7513     1.00000000
    3    0        -0.633662       -17.2428     1.00000000
    2    1        -5.751976      -156.5192     3.00000000
    3    1        -0.257086        -6.9957     2.00000000
  Spin-down
    1    0       -88.680731     -2413.1255     1.00000000
    2    0        -7.781719      -211.7513     1.00000000
    3    0        -0.633662       -17.2428     1.00000000
    2    1        -5.751976      -156.5192     3.00000000
    3    1        -0.257086        -6.9957     2.00000000

  Creating fixed part of basis set: Ionic, confined, hydrogenic.
 
  Mn                   hydrogenic:
 
  List of hydrogenic basis orbitals: 
    n    l      effective z      eigenvalue [eV]  inner max. [A]     outer max. [A]     outer radius [A]   
    4    3         9.600000       -78.3687           0.876678           0.876678           4.041063
    3    2         3.200000       -15.4667           1.482988           1.482988           5.418979
    2    1         2.000000       -13.6028           1.053123           1.053123           5.418979
    5    4        13.600000      -100.6603           0.978641           0.978641           4.041063
    3    0         3.300000       -16.4170           0.118066           2.088318           5.485633
    3    2         6.000000       -54.4226           0.794999           0.794999           4.192020
    6    5        19.200000      -139.3222           0.990678           0.990678           3.848209
    4    3         6.400000       -34.8302           1.328479           1.328479           5.353136
    4    3        17.200000      -251.5692           0.493521           0.493521           2.732750
    3    1         3.100000       -14.4728           0.511957           2.037877           5.485633
    3    2         6.200000       -58.1113           0.766370           0.766370           4.090769
    5    4        10.800000       -63.4786           1.219523           1.219523           4.795402
    3    0         3.800000       -21.8209           0.103210           1.825555           5.418979
 
 
  S                    ion:

  List of free ionic orbitals and eigenvalues:
    n    l      energy [Ha]    energy [eV]
    1    0       -89.703778     -2440.9640
    2    0        -8.775428      -238.7916
    3    0        -1.470343       -40.0101
    2    1        -6.747660      -183.6132
    3    1        -1.048627       -28.5346


  List of ionic basis orbitals and eigenvalues:
    n    l      energy [Ha]    energy [eV]    outer radius [A]
    3    2        -0.495605       -13.4861       5.386362
    3    0        -1.470336       -40.0099       3.967934

 
  S                    hydrogenic:
 
  List of hydrogenic basis orbitals: 
    n    l      effective z      eigenvalue [eV]  inner max. [A]     outer max. [A]     outer radius [A]   
    2    1         1.800000       -11.0118           1.168531           1.168531           5.452614
    4    3         7.000000       -41.6672           1.212182           1.212182           5.066981
    4    2         6.200000       -32.6848           0.582121           1.814567           5.386362
    5    4        10.800000       -63.4785           1.227092           1.227092           4.766538
    4    1         4.900000       -20.2928           0.304525           2.524192           5.452614
    5    3        10.000000       -54.4226           0.641929           1.727969           5.320915
    1    0         0.800000        -8.7059           0.657818           0.657818           5.386362
 

  Adding cutoff potential to free-atom effective potential.
  Creating atomic-like basis functions for current effective potential.

  Species Mn                  :

  List of atomic basis orbitals and eigenvalues:
    n    l      energy [Ha]    energy [eV]    outer radius [A]
    1    0      -238.096457     -6478.9342       0.426182
    2    0       -27.365433      -744.6513       1.280639
    3    0        -3.152827       -85.7928       3.620033
    4    0        -0.184961        -5.0330       5.418979
    2    1       -23.177195      -630.6836       1.344819
    3    1        -2.002774       -54.4983       4.348617
    3    2        -0.245871        -6.6905       5.288092


  Species S                   :

  List of atomic basis orbitals and eigenvalues:
    n    l      energy [Ha]    energy [eV]    outer radius [A]
    1    0       -88.680731     -2413.1255       0.682391
    2    0        -7.781719      -211.7513       2.289014
    3    0        -0.633662       -17.2428       5.256262
    2    1        -5.751976      -156.5192       2.555240
    3    1        -0.257086        -6.9957       5.386362

  Assembling full basis from fixed parts.
  | Species Mn :   atomic orbital   1 s accepted.
  | Species Mn :   atomic orbital   2 s accepted.
  | Species Mn :   atomic orbital   3 s accepted.
  | Species Mn :   atomic orbital   4 s accepted.
  | Species Mn :    hydro orbital   3 s accepted.
  | Species Mn :    hydro orbital   3 s accepted.
  | Species Mn :   atomic orbital   2 p accepted.
  | Species Mn :   atomic orbital   3 p accepted.
  | Species Mn :    hydro orbital   2 p accepted.
  | Species Mn :    hydro orbital   3 p accepted.
  | Species Mn :    hydro orbital   3 d accepted.
  | Species Mn :    hydro orbital   3 d accepted.
  | Species Mn :   atomic orbital   3 d accepted.
  | Species Mn :    hydro orbital   3 d accepted.
  | Species Mn :    hydro orbital   4 f accepted.
  | Species Mn :    hydro orbital   4 f accepted.
  | Species Mn :    hydro orbital   4 f accepted.
  | Species Mn :    hydro orbital   5 g accepted.
  | Species Mn :    hydro orbital   5 g accepted.
  | Species Mn :    hydro orbital   6 h accepted.
  | Species S :   atomic orbital   1 s accepted.
  | Species S :   atomic orbital   2 s accepted.
  | Species S :    ionic orbital   3 s accepted.
  | Species S :   atomic orbital   3 s accepted.
  | Species S :    hydro orbital   1 s accepted.
  | Species S :   atomic orbital   2 p accepted.
  | Species S :   atomic orbital   3 p accepted.
  | Species S :    hydro orbital   2 p accepted.
  | Species S :    hydro orbital   4 p accepted.
  | Species S :    ionic orbital   3 d accepted.
  | Species S :    hydro orbital   4 d accepted.
  | Species S :    hydro orbital   4 f accepted.
  | Species S :    hydro orbital   5 f accepted.
  | Species S :    hydro orbital   5 g accepted.
 
  Basis size parameters after reduction:
  | Total number of radial functions:       34
  | Total number of basis functions :      188
 
  Per-task memory consumption for arrays in subroutine allocate_ext:
  |          12.139616MB.
  Testing on-site integration grid accuracy.
  |  Species  Function  <phi|h_atom|phi> (log., in eV)  <phi|h_atom|phi> (rad., in eV)
           1        1              -6478.9342472267              -6478.9340176474
           1        2               -744.6513224105               -744.6513195399
           1        3                -85.7927988638                -85.7927983026
           1        4                 -5.0370437594                 -5.0369904506
           1        5                 20.8779687711                 20.8778214988
           1        6                 22.5874220535                 22.5885991740
           1        7               -630.6835516950               -630.6835515221
           1        8                -54.4982556298                -54.4982552859
           1        9                  1.0354203974                  1.0354379088
           1       10                 14.5253985452                 14.5257002602
           1       11                  3.8189524140                  3.8189523973
           1       12                 17.1967125259                 17.1967266263
           1       13                 62.5204761274                 62.5204984242
           1       14                 41.9632676204                 41.9634470490
           1       15                115.7177043578                115.7177043868
           1       16                 71.3860408734                 71.3860408077
           1       17                 50.6977335249                 50.6977464618
           1       18                 71.9342954379                 71.9342954339
           1       19                 67.7228093435                 67.7228059988
           1       20                112.6430545843                112.6430545485
           2       21              -2413.1254568977              -2413.1254096663
           2       22               -211.7513411281               -211.7513404762
           2       23                -16.9725280787                -16.9725279206
           2       24                  7.6024436204                  7.6024549059
           2       25                 48.5754986812                 48.5751292874
           2       26               -156.5192206929               -156.5192205451
           2       27                 -6.9959757887                 -6.9959777655
           2       28                  6.8896462808                  6.8895564741
           2       29                 27.2255287135                 27.2252601701
           2       30                  6.0214250550                  6.0214220200
           2       31                 19.6206468977                 19.6206494558
           2       32                 24.7008710786                 24.7008710738
           2       33                 58.2239314521                 58.2239319465
           2       34                 47.5292252001                 47.5292260486

  Preparing densities etc. for the partition functions (integrals / Hartree potential).

  Preparations completed.
  max(cpu_time)          :      0.656 s.
  Wall clock time (cpu1) :      0.653 s.
------------------------------------------------------------

------------------------------------------------------------
          Begin self-consistency loop: Initialization.

          Date     :  20191125, Time     :  104018.841
------------------------------------------------------------

  Initializing index lists of integration centers etc. from given atomic structure:
  Mapping all atomic coordinates to central unit cell.

  Initializing the k-points
  | Number of k-points                             :       324
  The eigenvectors in the calculations are COMPLEX.
  | K-points in task   0:         4
  | K-points in task   1:         5
  | K-points in task   2:         5
  | K-points in task   3:         5
  | K-points in task   4:         5
  | K-points in task   5:         4
  | K-points in task   6:         4
  | K-points in task   7:         4
  | K-points in task   8:         4
  | K-points in task   9:         4
  | K-points in task  10:         4
  | K-points in task  11:         4
  | K-points in task  12:         4
  | K-points in task  13:         4
  | K-points in task  14:         4
  | K-points in task  15:         4
  | K-points in task  16:         4
  | K-points in task  17:         4
  | K-points in task  18:         4
  | K-points in task  19:         4
  | K-points in task  20:         4
  | K-points in task  21:         4
  | K-points in task  22:         4
  | K-points in task  23:         4
  | K-points in task  24:         4
  | K-points in task  25:         4
  | K-points in task  26:         4
  | K-points in task  27:         4
  | K-points in task  28:         4
  | K-points in task  29:         4
  | K-points in task  30:         4
  | K-points in task  31:         4
  | K-points in task  32:         4
  | K-points in task  33:         4
  | K-points in task  34:         4
  | K-points in task  35:         4
  | K-points in task  36:         4
  | K-points in task  37:         4
  | K-points in task  38:         4
  | K-points in task  39:         4
  | K-points in task  40:         4
  | K-points in task  41:         4
  | K-points in task  42:         4
  | K-points in task  43:         4
  | K-points in task  44:         4
  | K-points in task  45:         4
  | K-points in task  46:         4
  | K-points in task  47:         4
  | K-points in task  48:         4
  | K-points in task  49:         4
  | K-points in task  50:         4
  | K-points in task  51:         4
  | K-points in task  52:         4
  | K-points in task  53:         4
  | K-points in task  54:         4
  | K-points in task  55:         4
  | K-points in task  56:         4
  | K-points in task  57:         4
  | K-points in task  58:         4
  | K-points in task  59:         4
  | K-points in task  60:         4
  | K-points in task  61:         4
  | K-points in task  62:         4
  | K-points in task  63:         4
  | K-points in task  64:         4
  | K-points in task  65:         4
  | K-points in task  66:         4
  | K-points in task  67:         4
  | K-points in task  68:         4
  | K-points in task  69:         4
  | K-points in task  70:         4
  | K-points in task  71:         4
  | K-points in task  72:         4
  | K-points in task  73:         4
  | K-points in task  74:         4
  | K-points in task  75:         4
  | K-points in task  76:         4
  | K-points in task  77:         4
  | K-points in task  78:         4
  | K-points in task  79:         4
  | Number of basis functions in the Hamiltonian integrals :      2900
  | Number of basis functions in a single unit cell        :       188
  | Number of centers in hartree potential         :       355
  | Number of centers in hartree multipole         :       185
  | Number of centers in electron density summation:       147
  | Number of centers in basis integrals           :       153
  | Number of centers in integrals                 :        65
  | Number of centers in hamiltonian               :       147
  | Consuming        303 KiB for k_phase.
  | Number of super-cells (origin) [n_cells]                     :         675
  | Number of super-cells (after PM_index) [n_cells]             :          60
  | Number of super-cells in hamiltonian [n_cells_in_hamiltonian]:          60
  | Size of matrix packed + index [n_hamiltonian_matrix_size] :      524111
  Partitioning the integration grid into batches with parallel hashing+maxmin method.
  | Number of batches:     1018
  | Maximal batch size:     175
  | Minimal batch size:       1
  | Average batch size:      70.403
  | Standard deviation of batch sizes:      21.188

  Integration load balanced across    80 MPI tasks.
  Work distribution over tasks is as follows:
  Task     0 has        909 integration points.
  Task     1 has        885 integration points.
  Task     2 has        955 integration points.
  Task     3 has        874 integration points.
  Task     4 has        929 integration points.
  Task     5 has        884 integration points.
  Task     6 has        877 integration points.
  Task     7 has        882 integration points.
  Task     8 has        949 integration points.
  Task     9 has        884 integration points.
  Task    10 has        887 integration points.
  Task    11 has        942 integration points.
  Task    12 has        947 integration points.
  Task    13 has        886 integration points.
  Task    14 has        947 integration points.
  Task    15 has        868 integration points.
  Task    16 has        952 integration points.
  Task    17 has        872 integration points.
  Task    18 has        893 integration points.
  Task    19 has        935 integration points.
  Task    20 has        883 integration points.
  Task    21 has        950 integration points.
  Task    22 has        886 integration points.
  Task    23 has        932 integration points.
  Task    24 has        889 integration points.
  Task    25 has        880 integration points.
  Task    26 has        857 integration points.
  Task    27 has        878 integration points.
  Task    28 has        882 integration points.
  Task    29 has        882 integration points.
  Task    30 has        990 integration points.
  Task    31 has        879 integration points.
  Task    32 has        881 integration points.
  Task    33 has        890 integration points.
  Task    34 has        944 integration points.
  Task    35 has        881 integration points.
  Task    36 has        996 integration points.
  Task    37 has        949 integration points.
  Task    38 has        870 integration points.
  Task    39 has        865 integration points.
  Task    40 has        896 integration points.
  Task    41 has        911 integration points.
  Task    42 has        879 integration points.
  Task    43 has        884 integration points.
  Task    44 has        871 integration points.
  Task    45 has        871 integration points.
  Task    46 has        868 integration points.
  Task    47 has        893 integration points.
  Task    48 has        877 integration points.
  Task    49 has        867 integration points.
  Task    50 has        872 integration points.
  Task    51 has        880 integration points.
  Task    52 has        874 integration points.
  Task    53 has        870 integration points.
  Task    54 has        869 integration points.
  Task    55 has        879 integration points.
  Task    56 has        874 integration points.
  Task    57 has        874 integration points.
  Task    58 has        872 integration points.
  Task    59 has        915 integration points.
  Task    60 has        869 integration points.
  Task    61 has        878 integration points.
  Task    62 has        875 integration points.
  Task    63 has        883 integration points.
  Task    64 has        880 integration points.
  Task    65 has        881 integration points.
  Task    66 has        930 integration points.
  Task    67 has        945 integration points.
  Task    68 has        957 integration points.
  Task    69 has        954 integration points.
  Task    70 has        874 integration points.
  Task    71 has        871 integration points.
  Task    72 has        853 integration points.
  Task    73 has        881 integration points.
  Task    74 has        863 integration points.
  Task    75 has        878 integration points.
  Task    76 has        854 integration points.
  Task    77 has        868 integration points.
  Task    78 has        911 integration points.
  Task    79 has        948 integration points.
  Initializing partition tables, free-atom densities, potentials, etc. across the integration grid (initialize_grid_storage).
  | initialize_grid_storage: Actual outermost partition radius vs. multipole_radius_free
  | (-- VB: in principle, multipole_radius_free should be larger, hence this output)
  | Species        1: Confinement radius =              6.000000000000000 AA, multipole_radius_free =              6.049238153309899 AA.
  | Species        1: outer_partition_radius set to              6.049238153309899 AA .
  | Species        2: Confinement radius =              6.000000000000000 AA, multipole_radius_free =              6.012827091137924 AA.
  | Species        2: outer_partition_radius set to              6.012827091137924 AA .
  | Original list of interatomic distances with         153 x        153 entries is created.
  | Net number of integration points:    71670
  | of which are non-zero points    :    58749
  | Numerical average free-atom electrostatic potential    :     -0.85623937 eV
  Renormalizing the initial density to the exact electron count on the 3D integration grid.
  | Initial density: Formal number of electrons (from input files) :      57.0000000000
  | Integrated number of electrons on 3D grid     :      56.9999634176
  | Charge integration error                      :      -0.0000365824
  | Normalization factor for density and gradient :       1.0000006418
  Obtaining max. number of non-zero basis functions in each batch (get_n_compute_maxes).
  | Maximal number of non-zero basis functions:     1594 in task     0
  | Maximal number of non-zero basis functions:     1629 in task     1
  | Maximal number of non-zero basis functions:     1585 in task     2
  | Maximal number of non-zero basis functions:     1551 in task     3
  | Maximal number of non-zero basis functions:     1564 in task     4
  | Maximal number of non-zero basis functions:     1586 in task     5
  | Maximal number of non-zero basis functions:     1596 in task     6
  | Maximal number of non-zero basis functions:     1539 in task     7
  | Maximal number of non-zero basis functions:     1626 in task     8
  | Maximal number of non-zero basis functions:     1551 in task     9
  | Maximal number of non-zero basis functions:     1543 in task    10
  | Maximal number of non-zero basis functions:     1595 in task    11
  | Maximal number of non-zero basis functions:     1599 in task    12
  | Maximal number of non-zero basis functions:     1607 in task    13
  | Maximal number of non-zero basis functions:     1608 in task    14
  | Maximal number of non-zero basis functions:     1585 in task    15
  | Maximal number of non-zero basis functions:     1561 in task    16
  | Maximal number of non-zero basis functions:     1612 in task    17
  | Maximal number of non-zero basis functions:     1597 in task    18
  | Maximal number of non-zero basis functions:     1569 in task    19
  | Maximal number of non-zero basis functions:     1572 in task    20
  | Maximal number of non-zero basis functions:     1582 in task    21
  | Maximal number of non-zero basis functions:     1576 in task    22
  | Maximal number of non-zero basis functions:     1559 in task    23
  | Maximal number of non-zero basis functions:     1579 in task    24
  | Maximal number of non-zero basis functions:     1537 in task    25
  | Maximal number of non-zero basis functions:     1608 in task    26
  | Maximal number of non-zero basis functions:     1608 in task    27
  | Maximal number of non-zero basis functions:     1532 in task    28
  | Maximal number of non-zero basis functions:     1575 in task    29
  | Maximal number of non-zero basis functions:     1525 in task    30
  | Maximal number of non-zero basis functions:     1575 in task    31
  | Maximal number of non-zero basis functions:     1569 in task    32
  | Maximal number of non-zero basis functions:     1551 in task    33
  | Maximal number of non-zero basis functions:     1604 in task    34
  | Maximal number of non-zero basis functions:     1542 in task    35
  | Maximal number of non-zero basis functions:     1600 in task    36
  | Maximal number of non-zero basis functions:     1600 in task    37
  | Maximal number of non-zero basis functions:     1567 in task    38
  | Maximal number of non-zero basis functions:     1564 in task    39
  | Maximal number of non-zero basis functions:     1537 in task    40
  | Maximal number of non-zero basis functions:     1563 in task    41
  | Maximal number of non-zero basis functions:     1555 in task    42
  | Maximal number of non-zero basis functions:     1606 in task    43
  | Maximal number of non-zero basis functions:     1528 in task    44
  | Maximal number of non-zero basis functions:     1601 in task    45
  | Maximal number of non-zero basis functions:     1575 in task    46
  | Maximal number of non-zero basis functions:     1520 in task    47
  | Maximal number of non-zero basis functions:     1562 in task    48
  | Maximal number of non-zero basis functions:     1608 in task    49
  | Maximal number of non-zero basis functions:     1560 in task    50
  | Maximal number of non-zero basis functions:     1558 in task    51
  | Maximal number of non-zero basis functions:     1551 in task    52
  | Maximal number of non-zero basis functions:     1579 in task    53
  | Maximal number of non-zero basis functions:     1596 in task    54
  | Maximal number of non-zero basis functions:     1575 in task    55
  | Maximal number of non-zero basis functions:     1622 in task    56
  | Maximal number of non-zero basis functions:     1590 in task    57
  | Maximal number of non-zero basis functions:     1604 in task    58
  | Maximal number of non-zero basis functions:     1600 in task    59
  | Maximal number of non-zero basis functions:     1557 in task    60
  | Maximal number of non-zero basis functions:     1535 in task    61
  | Maximal number of non-zero basis functions:     1606 in task    62
  | Maximal number of non-zero basis functions:     1570 in task    63
  | Maximal number of non-zero basis functions:     1582 in task    64
  | Maximal number of non-zero basis functions:     1563 in task    65
  | Maximal number of non-zero basis functions:     1607 in task    66
  | Maximal number of non-zero basis functions:     1626 in task    67
  | Maximal number of non-zero basis functions:     1555 in task    68
  | Maximal number of non-zero basis functions:     1558 in task    69
  | Maximal number of non-zero basis functions:     1575 in task    70
  | Maximal number of non-zero basis functions:     1589 in task    71
  | Maximal number of non-zero basis functions:     1584 in task    72
  | Maximal number of non-zero basis functions:     1586 in task    73
  | Maximal number of non-zero basis functions:     1615 in task    74
  | Maximal number of non-zero basis functions:     1619 in task    75
  | Maximal number of non-zero basis functions:     1563 in task    76
  | Maximal number of non-zero basis functions:     1569 in task    77
  | Maximal number of non-zero basis functions:     1611 in task    78
  | Maximal number of non-zero basis functions:     1537 in task    79
  Allocating        0.987 MB for KS_eigenvector_complex
  Integrating Hamiltonian matrix: batch-based integration.
  Time summed over all CPUs for integration: real work       49.366 s, elapsed       54.136 s
  Integrating overlap matrix.
  Time summed over all CPUs for integration: real work       19.122 s, elapsed       21.091 s
  Decreasing sparse matrix size:
   Tolerance:  9.999999824516700E-014
   Hamiltonian matrix
  | Array has   463196 nonzero elements out of   524111 elements
  | Sparsity factor is 0.116
   Overlap matrix
  | Array has   423970 nonzero elements out of   524111 elements
  | Sparsity factor is 0.191
  New size of hamiltonian matrix:      463847

  Updating Kohn-Sham eigenvalues and eigenvectors using ELSI and the ELPA eigensolver.
  Overlap matrix is nonsingular
  | Lowest eigenvalue of overlap  :  0.80E-04
  | Highest eigenvalue of overlap :  0.71E+01
  Finished singularity check of overlap matrix
  | Time :     0.005 s
  Finished Cholesky decomposition
  | Time :     0.001 s
  Finished transformation to standard eigenproblem
  | Time :     0.002 s
  Starting LAPACK eigensolver
  Finished solving standard eigenproblem
  | Time :     0.005 s
  Finished back-transformation of eigenvectors
  | Time :     0.000 s
  Fixed spin moments - chemical potentials:
  | Chemical potential, spin up:   -6.1951550274 eV.
  | Chemical potential, spin dn:   -6.8601691728 eV.
  | Fixed spin moment: Difference in chemical potentials between spin channels:   0.6650141454 eV.

  Writing Kohn-Sham eigenvalues.

  Spin-up eigenvalues:
  K-point:       1 at    0.000000    0.000000    0.000000 (in units of recip. lattice)

  State    Occupation    Eigenvalue [Ha]    Eigenvalue [eV]
      1       1.00000        -238.113508        -6479.39822
      2       1.00000         -88.708276        -2413.87500
      3       1.00000         -88.708276        -2413.87500
      4       1.00000         -27.406473         -745.76807
      5       1.00000         -23.212576         -631.64633
      6       1.00000         -23.212576         -631.64633
      7       1.00000         -23.212490         -631.64399
      8       1.00000          -7.811968         -212.57447
      9       1.00000          -7.811968         -212.57447
     10       1.00000          -5.781968         -157.33536
     11       1.00000          -5.781968         -157.33536
     12       1.00000          -5.781967         -157.33533
     13       1.00000          -5.781967         -157.33533
     14       1.00000          -5.781833         -157.33169
     15       1.00000          -5.781833         -157.33168
     16       1.00000          -3.233507          -87.98820
     17       1.00000          -2.084801          -56.73033
     18       1.00000          -2.084801          -56.73033
     19       1.00000          -2.083884          -56.70536
     20       1.00000          -0.782254          -21.28621
     21       1.00000          -0.717568          -19.52602
     22       1.00000          -0.443323          -12.06343
     23       1.00000          -0.412003          -11.21117
     24       1.00000          -0.412003          -11.21116
     25       1.00000          -0.340814           -9.27403
     26       1.00000          -0.340814           -9.27402
     27       1.00000          -0.298430           -8.12069
     28       1.00000          -0.297990           -8.10871
     29       1.00000          -0.255808           -6.96089
     30       1.00000          -0.255807           -6.96087
     31       0.00000          -0.176668           -4.80738
     32       0.00000          -0.176668           -4.80738
     33       0.00000          -0.028640           -0.77934
     34       0.00000          -0.003772           -0.10264
     35       0.00000           0.052925            1.44016
     36       0.00000           0.073391            1.99707
     37       0.00000           0.073392            1.99709
     38       0.00000           0.074894            2.03797
     39       0.00000           0.164028            4.46344
     40       0.00000           0.164031            4.46352
     41       0.00000           0.216255            5.88459

  Spin-down eigenvalues:
  K-point:       1 at    0.000000    0.000000    0.000000 (in units of recip. lattice)

  State    Occupation    Eigenvalue [Ha]    Eigenvalue [eV]
      1       1.00000        -238.113757        -6479.40499
      2       1.00000         -88.708278        -2413.87507
      3       1.00000         -88.708278        -2413.87507
      4       1.00000         -27.360142         -744.50736
      5       1.00000         -23.177340         -630.68752
      6       1.00000         -23.177340         -630.68752
      7       1.00000         -23.177259         -630.68529
      8       1.00000          -7.811999         -212.57530
      9       1.00000          -7.811999         -212.57530
     10       1.00000          -5.781996         -157.33612
     11       1.00000          -5.781996         -157.33612
     12       1.00000          -5.781995         -157.33610
     13       1.00000          -5.781995         -157.33610
     14       1.00000          -5.781861         -157.33245
     15       1.00000          -5.781861         -157.33245
     16       1.00000          -3.120126          -84.90296
     17       1.00000          -1.973842          -53.71097
     18       1.00000          -1.973842          -53.71097
     19       1.00000          -1.972965          -53.68712
     20       1.00000          -0.777164          -21.14770
     21       1.00000          -0.715797          -19.47784
     22       1.00000          -0.424712          -11.55701
     23       1.00000          -0.361608           -9.83984
     24       1.00000          -0.361608           -9.83984
     25       1.00000          -0.297082           -8.08401
     26       1.00000          -0.253279           -6.89208
     27       1.00000          -0.253279           -6.89207
     28       0.00000          -0.248567           -6.76384
     29       0.00000          -0.248567           -6.76384
     30       0.00000          -0.219885           -5.98336
     31       0.00000          -0.129350           -3.51978
     32       0.00000          -0.129350           -3.51978
     33       0.00000          -0.020760           -0.56490
     34       0.00000           0.002358            0.06415
     35       0.00000           0.053470            1.45499
     36       0.00000           0.087579            2.38315
     37       0.00000           0.087580            2.38317
     38       0.00000           0.087931            2.39274
     39       0.00000           0.181094            4.92781
     40       0.00000           0.181096            4.92787
     41       0.00000           0.228405            6.21523

  Current spin moment of the entire structure :
  | N = N_up - N_down (sum over all k points):         3.00000
  | S (sum over all k points)                :         1.50000

  What follows are estimated values for band gap, HOMO, LUMO, etc.
  | They are estimated on a discrete k-point grid and not necessarily exact.
  | For converged numbers, create a DOS and/or band structure plot on a denser k-grid.

  Highest occupied state (VBM) at     -6.89207071 eV (relative to internal zero)
  | Occupation number:      0.99999678
  | K-point:       1 at    0.000000    0.000000    0.000000 (in units of recip. lattice)
  | Spin channel:        2

  Lowest unoccupied state (CBM) at    -6.82766218 eV (relative to internal zero)
  | Occupation number:      0.00000214
  | K-point:     163 at    0.500000    0.000000    0.000000 (in units of recip. lattice)
  | Spin channel:        2

  ESTIMATED overall HOMO-LUMO gap:      0.06440853 eV between HOMO at k-point 1 and LUMO at k-point 163
  | This appears to be an indirect band gap.
  | Smallest direct gap :      0.12822714 eV for k_point 1 at    0.500000    0.000000    0.000000 (in units of recip. lattice)
  | Direct gap HOMO spin channel :     2
  | Direct gap LUMO spin channel :     2
  However, the gap value is rather small. Since we use a finite k-point grid,
  this material is most likely metallic (in the sense that there are states
  at or near the Fermi level). A DOS and/or band structure plot is required
  for an unambiguous distinction.
  Calculating total energy contributions from superposition of free atom densities.

  Total energy components:
  | Sum of eigenvalues            :       -1152.44923949 Ha      -31359.73937239 eV
  | XC energy correction          :        -103.65274645 Ha       -2820.53473803 eV
  | XC potential correction       :         134.23233876 Ha        3652.64778231 eV
  | Free-atom electrostatic energy:        -840.54747994 Ha      -22872.46066708 eV
  | Hartree energy correction     :           0.00000000 Ha           0.00000000 eV
  | Entropy correction            :          -0.00000000 Ha          -0.00000000 eV
  | ---------------------------
  | Total energy                  :       -1962.41712711 Ha      -53400.08699520 eV
  | Total energy, T -> 0          :       -1962.41712711 Ha      -53400.08699520 eV  <-- do not rely on this value for anything but (periodic) metals
  | Electronic free energy        :       -1962.41712711 Ha      -53400.08699521 eV

  Derived energy quantities:
  | Kinetic energy                :        1978.37691881 Ha       53834.37502358 eV
  | Electrostatic energy          :       -3837.14129947 Ha     -104413.92728075 eV
  | Energy correction for multipole
  | error in Hartree potential    :           0.00000000 Ha           0.00000000 eV
  | Sum of eigenvalues per atom                           :      -10453.24645746 eV
  | Total energy (T->0) per atom                          :      -17800.02899840 eV  <-- do not rely on this value for anything but (periodic) metals
  | Electronic free energy per atom                       :      -17800.02899840 eV
  Initialize hartree_potential_storage
  Max. number of atoms included in rho_multipole:            3

  End scf initialization - timings             :  max(cpu_time)    wall_clock(cpu1)
  | Time for scf. initialization               :        2.376 s           2.370 s
  | Boundary condition initialization          :        0.836 s           0.837 s
  | Integration                                :        1.208 s           1.170 s
  | Solution of K.-S. eqns.                    :        0.176 s           0.175 s
  | Grid partitioning                          :        0.080 s           0.078 s
  | Preloading free-atom quantities on grid    :        0.012 s           0.011 s
  | Free-atom superposition energy             :        0.008 s           0.005 s
  | Total energy evaluation                    :        0.004 s           0.001 s

  Partial memory accounting:
  | Current value for overall tracked memory usage on task 0  :          13.975 MB
  | Peak value for overall tracked memory usage on task 0     :          47.186 MB after allocating wave
  | Largest tracked array allocation on task 0 so far         :          20.327 MB  when allocating hamiltonian_shell
  Note:  These values currently only include a subset of arrays which are explicitly tracked.
  The "true" memory usage will be greater.
------------------------------------------------------------

------------------------------------------------------------
          Begin self-consistency iteration #    1

  Date     :  20191125, Time     :  104021.211
------------------------------------------------------------
  Evaluating new KS density using the density matrix
  Evaluating density matrix
  Evaluating density matrix
  Time summed over all CPUs for getting density from density matrix: real work      106.625 s, elapsed      117.199 s
  Integration grid: deviation in total charge (<rho> - N_e) =   6.238565E-12
  | <rho_up-rho_dn> = N_up-N_dn =      3.0000; <|rho_up-rho_dn|> =      3.2397
  Pulay mixing of updated and previous charge densities.

  Evaluating partitioned Hartree potential by multipole expansion.
  | Analytical far-field extrapolation by fixed multipoles:
  | Hartree multipole sum: apparent total charge =   0.297718E-03
  Summing up the Hartree potential.
  | Estimated reciprocal-space cutoff momentum G_max:         1.90186217 bohr^-1 .
  | Reciprocal lattice points for long-range Hartree potential:     660
  Time summed over all CPUs for potential: real work        3.896 s, elapsed        4.176 s
  | RMS charge density error from multipole expansion :   0.218126E-03
  | Average real-space part of the electrostatic potential :      0.00126327 eV

  Integrating Hamiltonian matrix: batch-based integration.
  Time summed over all CPUs for integration: real work       48.429 s, elapsed       53.202 s

  Updating Kohn-Sham eigenvalues and eigenvectors using ELSI and the ELPA eigensolver.
  Finished Cholesky decomposition
  | Time :     0.001 s
  Finished transformation to standard eigenproblem
  | Time :     0.002 s
  Starting LAPACK eigensolver
  Finished solving standard eigenproblem
  | Time :     0.005 s
  Finished back-transformation of eigenvectors
  | Time :     0.000 s
  Fixed spin moments - chemical potentials:
  | Chemical potential, spin up:   -6.0299501041 eV.
  | Chemical potential, spin dn:   -6.6669068212 eV.
  | Fixed spin moment: Difference in chemical potentials between spin channels:   0.6369567170 eV.

  Writing Kohn-Sham eigenvalues.

  Spin-up eigenvalues:
  K-point:       1 at    0.000000    0.000000    0.000000 (in units of recip. lattice)

  State    Occupation    Eigenvalue [Ha]    Eigenvalue [eV]
      1       1.00000        -238.100473        -6479.04352
      2       1.00000         -88.705048        -2413.78717
      3       1.00000         -88.705048        -2413.78717
      4       1.00000         -27.391960         -745.37316
      5       1.00000         -23.198232         -631.25601
      6       1.00000         -23.198232         -631.25601
      7       1.00000         -23.198207         -631.25532
      8       1.00000          -7.809164         -212.49815
      9       1.00000          -7.809164         -212.49815
     10       1.00000          -5.779139         -157.25836
     11       1.00000          -5.779139         -157.25836
     12       1.00000          -5.779138         -157.25834
     13       1.00000          -5.779138         -157.25834
     14       1.00000          -5.778956         -157.25340
     15       1.00000          -5.778956         -157.25340
     16       1.00000          -3.221723          -87.66755
     17       1.00000          -2.073330          -56.41819
     18       1.00000          -2.073330          -56.41819
     19       1.00000          -2.072688          -56.40071
     20       1.00000          -0.779398          -21.20851
     21       1.00000          -0.715349          -19.46565
     22       1.00000          -0.439893          -11.97008
     23       1.00000          -0.404832          -11.01603
     24       1.00000          -0.404831          -11.01602
     25       1.00000          -0.331611           -9.02359
     26       1.00000          -0.331610           -9.02358
     27       1.00000          -0.296161           -8.05896
     28       1.00000          -0.291444           -7.93059
     29       1.00000          -0.253475           -6.89741
     30       1.00000          -0.253475           -6.89740
     31       0.00000          -0.171306           -4.66149
     32       0.00000          -0.171306           -4.66148
     33       0.00000          -0.026267           -0.71476
     34       0.00000          -0.002891           -0.07866
     35       0.00000           0.052551            1.43000
     36       0.00000           0.076091            2.07053
     37       0.00000           0.076092            2.07056
     38       0.00000           0.077101            2.09802
     39       0.00000           0.167074            4.54632
     40       0.00000           0.167077            4.54641
     41       0.00000           0.218380            5.94242

  Spin-down eigenvalues:
  K-point:       1 at    0.000000    0.000000    0.000000 (in units of recip. lattice)

  State    Occupation    Eigenvalue [Ha]    Eigenvalue [eV]
      1       1.00000        -238.100678        -6479.04910
      2       1.00000         -88.705064        -2413.78762
      3       1.00000         -88.705064        -2413.78762
      4       1.00000         -27.345548         -744.11022
      5       1.00000         -23.162908         -630.29478
      6       1.00000         -23.162904         -630.29467
      7       1.00000         -23.162904         -630.29467
      8       1.00000          -7.809198         -212.49908
      9       1.00000          -7.809197         -212.49907
     10       1.00000          -5.779176         -157.25939
     11       1.00000          -5.779176         -157.25939
     12       1.00000          -5.779175         -157.25937
     13       1.00000          -5.779175         -157.25937
     14       1.00000          -5.778998         -157.25453
     15       1.00000          -5.778998         -157.25452
     16       1.00000          -3.108183          -84.57797
     17       1.00000          -1.962213          -53.39452
     18       1.00000          -1.962213          -53.39452
     19       1.00000          -1.961661          -53.37951
     20       1.00000          -0.774480          -21.07467
     21       1.00000          -0.713683          -19.42030
     22       1.00000          -0.422186          -11.48827
     23       1.00000          -0.356504           -9.70096
     24       1.00000          -0.356504           -9.70096
     25       1.00000          -0.295327           -8.03627
     26       1.00000          -0.251096           -6.83266
     27       1.00000          -0.251096           -6.83266
     28       0.00000          -0.239328           -6.51243
     29       0.00000          -0.239327           -6.51243
     30       0.00000          -0.211643           -5.75910
     31       0.00000          -0.123230           -3.35326
     32       0.00000          -0.123230           -3.35326
     33       0.00000          -0.018479           -0.50284
     34       0.00000           0.003055            0.08314
     35       0.00000           0.053126            1.44563
     36       0.00000           0.090123            2.45238
     37       0.00000           0.090124            2.45241
     38       0.00000           0.090454            2.46137
     39       0.00000           0.184473            5.01975
     40       0.00000           0.184475            5.01981
     41       0.00000           0.230884            6.28268

  Current spin moment of the entire structure :
  | N = N_up - N_down (sum over all k points):         3.00000
  | S (sum over all k points)                :         1.50000

  What follows are estimated values for band gap, HOMO, LUMO, etc.
  | They are estimated on a discrete k-point grid and not necessarily exact.
  | For converged numbers, create a DOS and/or band structure plot on a denser k-grid.

  Highest occupied state (VBM) at     -6.83265652 eV (relative to internal zero)
  | Occupation number:      1.00000000
  | K-point:       1 at    0.000000    0.000000    0.000000 (in units of recip. lattice)
  | Spin channel:        2

  Lowest unoccupied state (CBM) at    -6.62299804 eV (relative to internal zero)
  | Occupation number:      0.00000000
  | K-point:     163 at    0.500000    0.000000    0.000000 (in units of recip. lattice)
  | Spin channel:        2

  ESTIMATED overall HOMO-LUMO gap:      0.20965848 eV between HOMO at k-point 1 and LUMO at k-point 163
  | This appears to be an indirect band gap.
  | Smallest direct gap :      0.32022328 eV for k_point 1 at    0.500000    0.000000    0.000000 (in units of recip. lattice)
  | Direct gap HOMO spin channel :     2
  | Direct gap LUMO spin channel :     2
  The gap value is above 0.2 eV. Unless you are using a very sparse k-point grid,
  this system is most likely an insulator or a semiconductor.

  Total energy components:
  | Sum of eigenvalues            :       -1152.07896207 Ha      -31349.66361113 eV
  | XC energy correction          :        -103.65201495 Ha       -2820.51483303 eV
  | XC potential correction       :         134.23130366 Ha        3652.61961585 eV
  | Free-atom electrostatic energy:        -840.54747994 Ha      -22872.46066708 eV
  | Hartree energy correction     :          -0.37162095 Ha         -10.11232047 eV
  | Entropy correction            :          -0.00000000 Ha          -0.00000000 eV
  | ---------------------------
  | Total energy                  :       -1962.41877424 Ha      -53400.13181588 eV
  | Total energy, T -> 0          :       -1962.41877424 Ha      -53400.13181588 eV  <-- do not rely on this value for anything but (periodic) metals
  | Electronic free energy        :       -1962.41877424 Ha      -53400.13181588 eV

  Derived energy quantities:
  | Kinetic energy                :        1978.41188613 Ha       53835.32653287 eV
  | Electrostatic energy          :       -3837.17864542 Ha     -104414.94351571 eV
  | Energy correction for multipole
  | error in Hartree potential    :           0.00001001 Ha           0.00027232 eV
  | Sum of eigenvalues per atom                           :      -10449.88787038 eV
  | Total energy (T->0) per atom                          :      -17800.04393863 eV  <-- do not rely on this value for anything but (periodic) metals
  | Electronic free energy per atom                       :      -17800.04393863 eV

  Self-consistency convergence accuracy:
  | Change of charge/spin density :  0.1463E+00  0.2039E+00
  | Change of sum of eigenvalues  :  0.1008E+02 eV
  | Change of total energy        : -0.4482E-01 eV

  End self-consistency iteration #     1       :  max(cpu_time)    wall_clock(cpu1)
  | Time for this iteration                    :        2.760 s           2.754 s
  | Charge density update                      :        1.648 s           1.646 s
  | Density mixing & preconditioning           :        0.080 s           0.080 s
[...]
     66       0.00000                       0.482307           0.482314             0.171548
     67       0.00000                       0.494248           0.494274             0.011961
     68       0.00000                       0.648093           0.648097             0.153823
     69       0.00000                       1.813459           1.813556             1.165459
     70       0.00000                       1.858558           1.858623             0.045067
     71       0.00000                       2.911639           2.911677             1.053054
     72       0.00000                       3.040344           3.011436             0.099759
     73       0.00000                       3.040423           3.071190             0.059754
     74       0.00000                       3.313048           3.313083             0.241894
     75       0.00000                       3.415224           3.390809             0.077726
     76       0.00000                       3.415276           3.441251             0.050442
     77       0.00000                       5.410690           5.409300             1.968049
     78       0.00000                       5.410889           5.412384             0.003085
     79       0.00000                       5.892830           5.891009             0.478625
     80       0.00000                       5.892919           5.894820             0.003811
     81       0.00000                       6.805185           6.805443             0.910623
     82       0.00000                       7.234083           7.234289             0.428846

  What follows are estimated values for band gap, HOMO, LUMO, etc.
  | They are estimated on a discrete k-point grid and not necessarily exact.
  | For converged numbers, create a DOS and/or band structure plot on a denser k-grid.

  Highest occupied state (VBM) at     -5.76830546 eV (relative to internal zero)
  | Occupation number:      0.62429196
  | K-point:      10 at    0.000000    0.500000    0.000000 (in units of recip. lattice)

  Lowest unoccupied state (CBM) at    -5.75145138 eV (relative to internal zero)
  | Occupation number:      0.01937867
  | K-point:     189 at    0.555556    0.444444    0.000000 (in units of recip. lattice)

  ESTIMATED overall HOMO-LUMO gap:      0.01685408 eV between HOMO at k-point 10 and LUMO at k-point 189
  | This appears to be an indirect band gap.
  | Smallest direct gap :      0.06140815 eV for k_point 1 at    0.555556    0.444444    0.000000 (in units of recip. lattice)
  However, this system has fractional occupation numbers. Since we use a finite k-point grid,
  this material is metallic within the approximate finite broadening function (occupation_type)
  applied to determine the occupation numbers.

  Spin-orbit coupling                                     :  max(cpu_time)    wall_clock(cpu1)
  | Computing matrix elements for SOC operator            :          2.828               2.829
  | Constructing second-variational Hamiltonian           :          0.032               0.029
  | Diagonalizing second-variational Hamiltonian          :          0.016               0.017
  | Constructing SOC-perturbed eigenvectors               :          0.000               0.002
  | Syncing data and calculating occupations              :          0.044               0.043
  | Writing out data, calculating band gaps, etc.         :          0.004               0.001
  | Total SOC time                                        :          2.924               2.922

  Partial memory accounting:
  | Current value for overall tracked memory usage on task 0  :          16.375 MB
  | Peak value for overall tracked memory usage on task 0     :          56.709 MB after allocating +potential_shell
  | Largest tracked array allocation on task 0 so far         :          20.327 MB  when allocating hamiltonian_shell
  Note:  These values currently only include a subset of arrays which are explicitly tracked.
  The "true" memory usage will be greater.
 ------------------------------------------------------------

  ------------------------------------------------------------
                   Starting Mulliken Analysis
  ------------------------------------------------------------

  Performing scalar-relativistic Mulliken charge analysis on all atoms.
  Full analysis (per state, per k-point, etc.) will NOT be written to separate file 'Mulliken.out.no_soc'.
  This file can be requested by stating 'output mulliken' explicitly.
  Summary of the per-atom charge analysis:
  |
  |  atom       electrons          charge             l=0             l=1             l=2             l=3             l=4             l=5
  |     1       24.697049        0.302951        6.347302       12.821237        5.362092        0.144369        0.021216        0.000832
  |     2       16.151477       -0.151477        5.833067       10.105867        0.172201        0.033601        0.006741
  |     3       16.151475       -0.151475        5.833067       10.105865        0.172201        0.033600        0.006741
  |
  | Total       57.000000       -0.000000
 
  Summary of the per-atom spin analysis:
  |
  |  atom   spin      l=0         l=1         l=2         l=3         l=4         l=5
  |     1    3.173766    0.075081    0.155012    2.934837    0.010156   -0.001143   -0.000177
  |     2   -0.086883   -0.006458   -0.095526    0.006278    0.006712    0.002111
  |     3   -0.086883   -0.006458   -0.095526    0.006278    0.006712    0.002111
  |
  | Total    3.000000
 

  Calculating atom-projected density of states ...
  | Chemical potential is  -5.445154 eV.
  | writing spin-up projected DOS (shifted by the chemical potential) for species Mn to file atom_proj_dos_spin_upMn0001.dat.no_soc.
  | writing spin-down projected DOS (shifted by the chemical potential) for species Mn to file atom_proj_dos_spin_dnMn0001.dat.no_soc.
  | writing spin-up projected DOS (raw data) for species Mn to file atom_proj_dos_spin_upMn0001_raw.dat.no_soc.
  | writing spin-down projected DOS (raw data) for species Mn to file atom_proj_dos_spin_dnMn0001_raw.dat.no_soc.
  | writing spin-up projected DOS (shifted by the chemical potential) for species S to file atom_proj_dos_spin_upS0002.dat.no_soc.
  | writing spin-down projected DOS (shifted by the chemical potential) for species S to file atom_proj_dos_spin_dnS0002.dat.no_soc.
  | writing spin-up projected DOS (raw data) for species S to file atom_proj_dos_spin_upS0002_raw.dat.no_soc.
  | writing spin-down projected DOS (raw data) for species S to file atom_proj_dos_spin_dnS0002_raw.dat.no_soc.
  | writing spin-up projected DOS (shifted by the chemical potential) for species S to file atom_proj_dos_spin_upS0003.dat.no_soc.
  | writing spin-down projected DOS (shifted by the chemical potential) for species S to file atom_proj_dos_spin_dnS0003.dat.no_soc.
  | writing spin-up projected DOS (raw data) for species S to file atom_proj_dos_spin_upS0003_raw.dat.no_soc.
  | writing spin-down projected DOS (raw data) for species S to file atom_proj_dos_spin_dnS0003_raw.dat.no_soc.

  Performing spin-orbit-coupled Mulliken charge analysis on all atoms.
  Full analysis (per state, per k-point, etc.) will NOT be written to separate file 'Mulliken.out.no_soc'.
  This file can be requested by stating 'output mulliken' explicitly.
  Summary of the per-atom charge analysis:
  |
  |  atom       electrons          charge             l=0             l=1             l=2             l=3             l=4             l=5
  |     1       24.699572        0.300428        6.347329       12.821019        5.364967        0.144207        0.021218        0.000831
  |     2       16.150222       -0.150222        5.833085       10.104372        0.172401        0.033621        0.006742
  |     3       16.150206       -0.150206        5.833088       10.104352        0.172403        0.033621        0.006742
  |
  | Total       57.000000        0.000000
 
  Summary of the per-atom spin analysis:
  |
  |  atom   spin      l=0         l=1         l=2         l=3         l=4         l=5
  |     1    3.170032    0.075045    0.154856    2.931437    0.010017   -0.001146   -0.000177
  |     2   -0.088574   -0.006483   -0.096973    0.006086    0.006687    0.002110
  |     3   -0.088595   -0.006482   -0.096993    0.006084    0.006686    0.002110
  |
  | Total    2.992863
 

  Calculating atom-projected density of states ...
  | Chemical potential is  -5.766066 eV.
  | writing projected DOS (shifted by the chemical potential) for species Mn to file atom_projected_dos_Mn0001.dat.
  | writing projected DOS (raw data) for species Mn to file atom_proj_dos_Mn0001_raw.dat.
  | writing projected DOS (shifted by the chemical potential) for species S to file atom_projected_dos_S0002.dat.
  | writing projected DOS (raw data) for species S to file atom_proj_dos_S0002_raw.dat.
  | writing projected DOS (shifted by the chemical potential) for species S to file atom_projected_dos_S0003.dat.
  | writing projected DOS (raw data) for species S to file atom_proj_dos_S0003_raw.dat.
  Mulliken analysis                                       :  max(cpu_time)    wall_clock(cpu1)
  | Time for Mulliken analysis (scalar relativistic)      :          0.840               0.871
  | Time for Mulliken analysis (spin-orbit coupled)       :          1.608               1.624
  | Total time for Mulliken analysis                      :          2.448               2.495
------------------------------------------------------------

  -------------------------------------------------------------------
  Writing the requested band structure output (LAPACK version):
  -------------------------------------------------------------------

  Integrating Hamiltonian matrix: batch-based integration.
  Time summed over all CPUs for integration: real work       48.412 s, elapsed       53.166 s
  Integrating SOC matrix: batch-based integration p2 version.
  Allocating        0.091 MB for dist_tab
  Allocating        0.091 MB for dist_tab_sq
  Allocating        0.273 MB for dir_tab
  Allocating        0.009 MB for i_basis_fns
  Allocating        0.275 MB for i_basis_fns_inv
  Allocating        0.009 MB for i_atom_fns
  Allocating        6.695 MB for gradient_basis_wave
  Allocating        0.010 MB for ylm_tab
  Allocating        0.003 MB for radial_wave
  Allocating        0.003 MB for radial_wave_deriv
  Allocating        0.012 MB for i_basis
  Allocating       20.327 MB for soc_shell
  Allocating        0.034 MB for cartesians
  Allocating        0.029 MB for sum_gradient
  Allocating        0.059 MB for sum_hessian
  Allocating        0.001 MB for potential_shell

  Treating all   31 k-points in band plot segment #   1:


  Scalar-relativistic "band gap" along reciprocal space direction number:    1
  | Lowest unoccupied state:      -5.43946538 eV
  | Highest occupied state :      -5.45637505 eV
  | Energy difference      :       0.01690966 eV


Spin-orbit-coupled "band gap" along reciprocal space direction number:    1
  | Lowest unoccupied state:      -5.76207094 eV
  | Highest occupied state :      -5.76674458 eV
  | Energy difference      :       0.00467364 eV


  Treating all   31 k-points in band plot segment #   2:


  Scalar-relativistic "band gap" along reciprocal space direction number:    2
  | Lowest unoccupied state:      -5.44067888 eV
  | Highest occupied state :      -5.48536344 eV
  | Energy difference      :       0.04468456 eV


Spin-orbit-coupled "band gap" along reciprocal space direction number:    2
  | Lowest unoccupied state:      -5.76335582 eV
  | Highest occupied state :      -5.76833005 eV
  | Energy difference      :       0.00497423 eV


  Treating all   31 k-points in band plot segment #   3:


  Scalar-relativistic "band gap" along reciprocal space direction number:    3
  | Lowest unoccupied state:      -5.42947725 eV
  | Highest occupied state :      -5.46468834 eV
  | Energy difference      :       0.03521109 eV


Spin-orbit-coupled "band gap" along reciprocal space direction number:    3
  | Lowest unoccupied state:      -5.75801107 eV
  | Highest occupied state :      -5.77787096 eV
  | Energy difference      :       0.01985989 eV

  Scalar-relativistic "band gap" of total set of bands:
  | Lowest unoccupied state:      -5.44067888 eV
  | Highest occupied state :      -5.45637505 eV
  | Energy difference      :       0.01569617 eV

  Spin-orbit-coupled "band gap" of total set of bands:
  | Lowest unoccupied state:      -5.76335582 eV
  | Highest occupied state :      -5.76674458 eV
  | Energy difference      :       0.00338876 eV


  Band Structure                                          :  max(cpu_time) wall_clock(cpu1)
  | Total Time                                            :          3.900            3.928
------------------------------------------------------------

------------------------------------------------------------------------------
  Final output of selected total energy values:

  The following output summarizes some interesting total energy values
  at the end of a run (AFTER all relaxation, molecular dynamics, etc.).

  | Total energy of the DFT / Hartree-Fock s.c.f. calculation      :         -53400.144592817 eV
  | Final zero-broadening corrected energy (caution - metals only) :         -53400.144613315 eV
  | Total energy after non-SC SOC correction (DO NOT USE)          :         -53400.152140093 eV
  | For reference only, the value of 1 Hartree used in FHI-aims is :             27.211384500 eV

  Before relying on these values, please be sure to understand exactly which
  total energy value is referred to by a given number. Different objects may
  all carry the same name 'total energy'. Definitions:

  Total energy of the DFT / Hartree-Fock s.c.f. calculation:
  | Note that this energy does not include ANY quantities calculated after the
  | s.c.f. cycle, in particular not ANY RPA, MP2, etc. many-body perturbation terms.

  Final zero-broadening corrected energy:
  | For metallic systems only, a broadening of the occupation numbers at the Fermi
  | level can be extrapolated back to zero broadening by an electron-gas inspired
  | formula. For all systems that are not real metals, this value can be
  | meaningless and should be avoided.

------------------------------------------------------------------------------
  Methods described in the following list of references were used in this FHI-aims run.
  If you publish the results, please make sure to cite these reference if they apply.
  FHI-aims is an academic code, and for our developers (often, Ph.D. students
  and postdocs), scientific credit in the community is essential.
  Thank you for helping us!

  For any use of FHI-aims, please cite:

    Volker Blum, Ralf Gehrke, Felix Hanke, Paula Havu, Ville Havu,
    Xinguo Ren, Karsten Reuter, and Matthias Scheffler
    'Ab initio molecular simulations with numeric atom-centered orbitals'
    Computer Physics Communications 180, 2175-2196 (2009)
    http://dx.doi.org/10.1016/j.cpc.2009.06.022


  For second-variational spin-orbit coupling used in your run, please cite:

    William P. Huhn and Volker Blum,
    'One-hundred-three compound band-structure benchmark of post-self-consistent'
    'spin-orbit coupling treatments in density functional theory'
    Phys. Rev. Materials 1, 033803 (2017).


  The scalable eigensolver library ELPA was used in your run.
  ELPA is essential especially for large systems on hundreds or thousands of CPUs.
  For ELPA, please cite:

    Andreas Marek, Volker Blum, Rainer Johanni, Ville Havu, Bruno Lang,
    Thomas Auckenthaler, Alexander Heinecke, Hans-Joachim Bungartz, and Hermann Lederer,
    'The ELPA Library - Scalable Parallel Eigenvalue Solutions
    for Electronic Structure Theory and Computational Science'
    The Journal of Physics: Condensed Matter 26, 213201 (2014).
    http://dx.doi.org/10.1088/0953-8984/26/21/213201


  The ELSI infrastructure was used in your run to solve the Kohn-Sham electronic structure.
  Please check out http://elsi-interchange.org to learn more.
  If scalability is important for your project, please acknowledge ELSI by citing:

    V. W-z. Yu, F. Corsetti, A. Garcia, W. P. Huhn, M. Jacquelin, W. Jia,
    B. Lange, L. Lin, J. Lu, W. Mi, A. Seifitokaldani, A. Vazquez-Mayagoitia,
    C. Yang, H. Yang, and V. Blum
    'ELSI: A unified software interface for Kohn-Sham electronic structure solvers'
    Computer Physics Communications 222, 267-285 (2018).
    http://dx.doi.org/10.1016/j.cpc.2017.09.007


  For the real-space grid partitioning and parallelization used in this calculation, please cite:

    Ville Havu, Volker Blum, Paula Havu, and Matthias Scheffler,
    'Efficient O(N) integration for all-electron electronic structure calculation'
    'using numerically tabulated basis functions'
    Journal of Computational Physics 228, 8367-8379 (2009).
    http://dx.doi.org/10.1016/j.jcp.2009.08.008

  Of course, there are many other important community references, e.g., those cited in the
  above references. Our list is limited to references that describe implementations in the
  FHI-aims code. The reason is purely practical (length of this list) - please credit others as well.

------------------------------------------------------------
          Leaving FHI-aims.
          Date     :  20191125, Time     :  104139.765

          Computational steps:
          | Number of self-consistency cycles          :           25
          | Number of SCF (re)initializations          :            1

          Detailed time accounting                     :  max(cpu_time)    wall_clock(cpu1)
          | Total time                                 :       81.728 s          81.673 s
          | Preparation time                           :        0.656 s           0.653 s
          | Boundary condition initalization           :        0.836 s           0.837 s
          | Grid partitioning                          :        0.080 s           0.078 s
          | Preloading free-atom quantities on grid    :        0.012 s           0.011 s
          | Free-atom superposition energy             :        0.008 s           0.005 s
          | Total time for integrations                :       21.524 s          21.416 s
          | Total time for solution of K.-S. equations :        4.160 s           4.110 s
          | Total time for density update              :       40.932 s          40.843 s
          | Total time for mixing & preconditioning    :        2.020 s           1.993 s
          | Total time for Hartree multipole update    :        0.308 s           0.229 s
          | Total time for Hartree multipole sum       :        1.976 s           1.906 s
          | Total time for total energy evaluation     :        0.104 s           0.024 s
          | Total time for scaled ZORA corrections     :        0.000 s           0.000 s
          | Total time for perturbative SOC            :        2.924 s           2.922 s
          | Total time for band structures, DOS        :        3.928 s           3.928 s
          | Total time for Mulliken analysis           :        2.476 s           2.495 s

          Partial memory accounting:
          | Residual value for overall tracked memory usage across tasks :           0.000 MB (should be 0.000 MB)
          | Peak values for overall tracked memory usage (after allocating +potential_shell):
          |   Minimum:       54.547 MB (on task 48)
          |   Maximum:       58.499 MB (on task  2)
          |   Average:       56.266 MB
          | Largest tracked array allocation (hamiltonian_shell):
          |   Minimum:       18.483 MB (on task 48)
          |   Maximum:       21.229 MB (on task  2)
          |   Average:       19.920 MB
          Note:  These values currently only include a subset of arrays which are explicitly tracked.
          The "true" memory usage will be greater.

          Have a nice day.
------------------------------------------------------------
