3
Lattice="3.34999262204712 6.85432024242348e-19 0.0 -1.67499631102356 2.90117871318325 0.0 -8.5611746970606e-18 1.28348115285379e-38 17.7751707298577" Properties=species:S:1:pos:R:3:initial_magmoms:R:1:forces:R:3:dipole:R:1:magmoms:R:1 energy=-19.5736659349236 stress="9.8002541518544e-06 0.0 0.0 0.0 9.80025415185471e-06 -1.03694640373394e-19 0.0 -1.03694640373394e-19 8.05957412824099e-05" magmom=2.96426377808015 free_energy=-19.576298823678 pbc="T T F"
Mn      -0.00000000       0.00000000       8.88758541       1.00000000       0.00000000       0.00000000      -0.00000017      -0.00000000       2.93294860 
S       1.67499631       0.96705957      10.20833766       1.00000000       0.00000000       0.00000000       0.00158385       0.00000000      -0.02081643 
S      -0.00000000       1.93411914       7.56683312       1.00000000      -0.00000000       0.00000000      -0.00158365       0.00000000      -0.02081643 
