------------------------------------------------------------
          Invoking FHI-aims ...

          When using FHI-aims, please cite the following reference:

            Volker Blum, Ralf Gehrke, Felix Hanke, Paula Havu,
            Ville Havu, Xinguo Ren, Karsten Reuter, and Matthias Scheffler,
            'Ab Initio Molecular Simulations with Numeric Atom-Centered Orbitals',
            Computer Physics Communications 180, 2175-2196 (2009)

          In addition, many other developments in FHI-aims are likely important for
          your particular application. A partial list of references is given at the end of
          this file. Thank you for giving credit to the authors of these developments.

          For any questions about FHI-aims, please visit our slack channel at

            https://fhi-aims.slack.com

          and our main development and support site at

            https://aims-git.rz-berlin.mpg.de .

          The latter site, in particular, has a wiki to collect information, as well
          as an issue tracker to log discussions, suggest improvements, and report issues
          or bugs. https://aims-git.rz-berlin.mpg.de is also the main development site
          of the project and all new and updated code versions can be obtained there.
          Please send an email to aims-coordinators@fhi-berlin.mpg.de and we will add
          you to these sites. They are for you and everyone is welcome there.

------------------------------------------------------------



  Date     :  20210412, Time     :  141819.433
  Time zero on CPU 1             :   0.211730000000000E-01  s.
  Internal wall clock time zero  :           387469099.433  s.

  FHI-aims created a unique identifier for this run for later identification
  aims_uuid : 8AEF703C-24B7-409C-A019-B0DE3F8C4DF6

  Build configuration of the current instance of FHI-aims
  -------------------------------------------------------
  FHI-aims version      : 201231
  Commit number         : 25ede1ec1
  CMake host system     : Linux-5.4.72-microsoft-standard-WSL2
  CMake version         : 3.19.4
  Fortran compiler      : /home/rkempt/miniconda3/envs/aims-env/bin/mpifort (GNU) version 9.3.0
  Fortran compiler flags: -O2 -ffree-line-length-none
  C compiler            : /home/rkempt/miniconda3/envs/aims-env/bin/gcc (GNU) version 9.3.0
  C compiler flags      : -O2 -funroll-loops -std=gnu99
  Using MPI
  Using LibXC
  Using i-PI
  Using RLSY
  Linking against: /home/rkempt/miniconda3/envs/aims-env/lib/libmkl_intel_lp64.so
                   /home/rkempt/miniconda3/envs/aims-env/lib/libmkl_sequential.so
                   /home/rkempt/miniconda3/envs/aims-env/lib/libmkl_core.so

  Using        4 parallel tasks.
  Task        0 on host DESKTOP-VF3RMOI reporting.
  Task        1 on host DESKTOP-VF3RMOI reporting.
  Task        2 on host DESKTOP-VF3RMOI reporting.
  Task        3 on host DESKTOP-VF3RMOI reporting.

  Performing system and environment tests:
  *** Environment variable OMP_NUM_THREADS is not set
  *** For performance reasons you might want to set it to 1
  | Checking for ScaLAPACK...
  | No ScaLAPACK compiled in.

  Obtaining array dimensions for all initial allocations:
  
  -----------------------------------------------------------------------
  Parsing control.in (first pass over file, find array dimensions only).
  The contents of control.in will be repeated verbatim below
  unless switched off by setting 'verbatim_writeout .false.' .
  in the first line of control.in .
  -----------------------------------------------------------------------
  
  #===============================================================================
  # FHI-aims file: control.in
  # Created using the Atomic Simulation Environment (ASE)
  # Sun Nov 15 16:53:51 2020
  #===============================================================================
  xc                                 pbe
  #include_spin_orbit
  check_stacksize .false.
  ## Common choices of dispersion methods:
  # 	 vdw_correction_hirshfeld
  # 	 many_body_dispersion
  # 	 many_body_dispersion_nl
  spin                               none
  k_grid                             21 21 1
  
  ### SCF settings
  adjust_scf 	 always 	 3
  sc_iter_limit 	 100
  # frozen_core_scf 	 .true.
  # charge_mix_param 	 0.02
  # occupation_type 	 gaussian 	 0.1
  # sc_accuracy_rho 	 1E-6 	 	 # electron density convergence
  # elsi_restart 	 read_and_write 	 1000
  
  ### Band structure section
  ## Brillouin Zone section Nr. 1
  output band 0.000000 0.000000 0.000000 	 0.500000 0.000000 0.000000 	 31 	 G M
  output band 0.500000 0.000000 0.000000 	 0.333333 0.333333 0.000000 	 31 	 M K
  output band 0.333333 0.333333 0.000000 	 0.000000 0.000000 0.000000 	 31 	 K G
  
  ### Mulliken-projected band structure section
  ## Brillouin Zone section Nr. 1
  output band_mulliken 0.000000 0.000000 0.000000 	 0.500000 0.000000 0.000000 	 31 	 G M
  output band_mulliken 0.500000 0.000000 0.000000 	 0.333333 0.333333 0.000000 	 31 	 M K
  output band_mulliken 0.333333 0.333333 0.000000 	 0.000000 0.000000 0.000000 	 31 	 K G
  
  ### DOS section
  output species_proj_dos_tetrahedron -20 10 500
  #===============================================================================
  
  ################################################################################
  #
  #  FHI-aims code project
  #  VB, Fritz-Haber Institut, 2009
  #
  #  Suggested "light" defaults for N atom (to be pasted into control.in file)
  #  Be sure to double-check any results obtained with these settings for post-processing,
  #  e.g., with the "tight" defaults and larger basis sets.
  #
  ################################################################################
    species        N
  #     global species definitions
      nucleus             7
      mass                14.0067
  #
      l_hartree           4
  #
      cut_pot             3.5  1.5  1.0
      basis_dep_cutoff    1e-4
  #
      radial_base         35 5.0
      radial_multiplier   1
      angular_grids       specified
        division   0.2599   50
        division   0.4601  110
        division   0.5885  194
        division   0.6503  302
  #      division   0.6939  434
  #      division   0.7396  590
  #      division   0.7632  770
  #      division   0.8122  974
  #      division   1.1604 1202
  #      outer_grid  974
        outer_grid  302
  ################################################################################
  #
  #  Definition of "minimal" basis
  #
  ################################################################################
  #     valence basis states
      valence      2  s   2.
      valence      2  p   3.
  #     ion occupancy
      ion_occ      2  s   1.
      ion_occ      2  p   2.
  ################################################################################
  #
  #  Suggested additional basis functions. For production calculations,
  #  uncomment them one after another (the most important basis functions are
  #  listed first).
  #
  #  Constructed for dimers: 1.0 A, 1.1 A, 1.5 A, 2.0 A, 3.0 A
  #
  ################################################################################
  #  "First tier" - improvements: -1193.42 meV to -220.60 meV
       hydro 2 p 1.8
       hydro 3 d 6.8
       hydro 3 s 5.8
  #  "Second tier" - improvements: -80.21 meV to -6.86 meV
  #     hydro 4 f 10.8
  #     hydro 3 p 5.8
  #     hydro 1 s 0.8
  #     hydro 5 g 16
  #     hydro 3 d 4.9
  #  "Third tier" - improvements: -4.29 meV to -0.53 meV
  #     hydro 3 s 16
  #     ionic 2 p auto
  #     hydro 3 d 6.6
  #     hydro 4 f 11.6
  #  "Fourth tier" - improvements: -0.75 meV to -0.25 meV
  #     hydro 2 p 4.5
  #     hydro 2 s 2.4
  #     hydro 5 g 14.4
  #     hydro 4 d 14.4
  #     hydro 4 f 16.8
  # Further basis functions - -0.21 meV and below
  #     hydro 3 p 14.8
  #     hydro 3 s 4.4
  #     hydro 3 d 19.6
  #     hydro 5 g 12.8
  ################################################################################
  #
  #  FHI-aims code project
  #  VB, Fritz-Haber Institut, 2009
  #
  #  Suggested "light" defaults for B atom (to be pasted into control.in file)
  #  Be sure to double-check any results obtained with these settings for post-processing,
  #  e.g., with the "tight" defaults and larger basis sets.
  #
  ################################################################################
    species        B
  #     global species definitions
      nucleus             5
      mass                10.811
  #
      l_hartree           4
  #
      cut_pot             3.5  1.5  1.0
      basis_dep_cutoff    1e-4
  #
      radial_base         32 5.0
      radial_multiplier   1
      angular_grids       specified
        division   0.3742  110
        division   0.5197  194
        division   0.5753  302
  #      division   0.7664  434
  #      division   0.8392  770
  #      division   1.6522  974
  #      outer_grid   974
        outer_grid   302
  ################################################################################
  #
  #  Definition of "minimal" basis
  #
  ################################################################################
  #     valence basis states
      valence      2  s   2.
      valence      2  p   1.
  #     ion occupancy
      ion_occ      2  s   1.
  ################################################################################
  #
  #  Suggested additional basis functions. For production calculations,
  #  uncomment them one after another (the most important basis functions are
  #  listed first).
  #
  #  Constructed for dimers: 1.25 A, 1.625 A, 2.5 A, 3.5 A
  #
  ################################################################################
  #  "First tier" - improvements: -710.52 meV to -92.39 meV
       hydro 2 p 1.4
       hydro 3 d 4.8
       hydro 2 s 4
  #  "Second tier" - improvements: -33.88 meV to -2.20 meV
  #     hydro 4 f 7.8
  #     hydro 3 p 4.2
  #     hydro 3 s 3.3
  #     hydro 5 g 11.2
  #     hydro 3 d 5.4
  #  "Third tier" - improvements: -1.28 meV to -0.36 meV
  #     hydro 2 p 4.7
  #     hydro 2 s 8.4
  #     hydro 4 d 5.8
  #  "Fourth tier" - improvements: -0.25 meV to -0.12 meV
  #     hydro 3 p 2.2
  #     hydro 3 s 3
  #     hydro 4 f 9.8
  #     hydro 5 g 12.8
  #     hydro 4 d 10
  #  Further functions
  #     hydro 4 f 14
  #     hydro 3 p 12.4
  
  -----------------------------------------------------------------------
  Completed first pass over input file control.in .
  -----------------------------------------------------------------------
  
  
  -----------------------------------------------------------------------
  Parsing geometry.in (first pass over file, find array dimensions only).
  The contents of geometry.in will be repeated verbatim below
  unless switched off by setting 'verbatim_writeout .false.' .
  in the first line of geometry.in .
  -----------------------------------------------------------------------
  
  #=======================================================
  # FHI-aims file: geometry.in
  # Created using the Atomic Simulation Environment (ASE)
  # Sun Nov 15 16:53:51 2020
  #=======================================================
  lattice_vector 2.5124282299999998 0.0000000000000000 0.0000000000000000
  lattice_vector -1.2562141099999999 2.1758266700000002 0.0000000000000000
  lattice_vector 0.0000000000000000 0.0000000000000000 100.0000000000000000
  atom 1.2562141300000000 0.7252755500000000 1.9268162499999999 N
  atom -0.0000000100000000 1.4505511200000001 1.9268162499999999 B
  
  -----------------------------------------------------------------------
  Completed first pass over input file geometry.in .
  -----------------------------------------------------------------------
  

  Basic array size parameters:
  | Number of species                 :        2
  | Number of atoms                   :        2
  | Number of lattice vectors         :        3
  | Max. basis fn. angular momentum   :        2
  | Max. atomic/ionic basis occupied n:        2
  | Max. number of basis fn. types    :        2
  | Max. radial fns per species/type  :        3
  | Max. logarithmic grid size        :     1290
  | Max. radial integration grid size :       35
  | Max. angular integration grid size:      302
  | Max. angular grid division number :        8
  | Radial grid for Hartree potential :     1290
  | Number of spin channels           :        1

------------------------------------------------------------
          Reading file control.in.
------------------------------------------------------------
  XC: Using PBE gradient-corrected functionals.
  Spin treatment: No spin polarisation.
  Found k-point grid:        21        21         1
  S.C.F. convergence parameters will be adjusted in iteration number     3 of each new s.c.f. cycle.
  Maximum number of s.-c. iterations  :   100

  Plot band    1
  | begin  0.000000  0.000000  0.000000
  | end    0.500000  0.000000  0.000000
  | number of points:   31

  Plot band    2
  | begin  0.500000  0.000000  0.000000
  | end    0.333333  0.333333  0.000000
  | number of points:   31

  Plot band    3
  | begin  0.333333  0.333333  0.000000
  | end    0.000000  0.000000  0.000000
  | number of points:   31
  Mulliken analysis of all k points in band will be performed

  Plot band    4
  | begin  0.000000  0.000000  0.000000
  | end    0.500000  0.000000  0.000000
  | number of points:   31
  Mulliken analysis of all k points in band will be performed

  Plot band    5
  | begin  0.500000  0.000000  0.000000
  | end    0.333333  0.333333  0.000000
  | number of points:   31
  Mulliken analysis of all k points in band will be performed

  Plot band    6
  | begin  0.333333  0.333333  0.000000
  | end    0.000000  0.000000  0.000000
  | number of points:   31
  Calculating angular-momentum projected DOS with 
  | energy interval :-20.000000 10.000000
  | points & tetrahedron :   500

  Reading configuration options for species N                   .
  | Found nuclear charge :   7.0000
  | Found atomic mass :    14.006700000000000      amu
  | Found l_max for Hartree potential  :   4
  | Found cutoff potl. onset [A], width [A], scale factor :    3.50000    1.50000    1.00000
  | Threshold for basis-dependent cutoff potential is   0.100000E-03
  | Found data for basic radial integration grid :    35 points, outermost radius =    5.000 A
  | Found multiplier for basic radial grid :   1
  | Found angular grid specification: user-specified.
  | Specified grid contains     5 separate shells.
  | Check grid settings after all constraints further below.
  | Found free-atom valence shell :  2 s   2.000
  | Found free-atom valence shell :  2 p   3.000
  | No ionic wave fns used. Skipping ion_occ.
  | No ionic wave fns used. Skipping ion_occ.
  | Found hydrogenic basis function :  2 p   1.800
  | Found hydrogenic basis function :  3 d   6.800
  | Found hydrogenic basis function :  3 s   5.800
  Species N                   : Missing cutoff potential type.
  Defaulting to exp(1/x)/(1-x)^2 type cutoff potential.
  Species N : No 'logarithmic' tag. Using default grid for free atom:
  | Default logarithmic grid data [bohr] : 0.1000E-03 0.1000E+03 0.1012E+01
  Species N : On-site basis accuracy parameter (for Gram-Schmidt orthonormalisation) not specified.
  Using default value basis_acc =  0.1000000E-03.
  Species N                   : Using default innermost maximum threshold i_radial=  2 for radial functions.
  Species N                   : Default cutoff onset for free atom density etc. : 0.35000000E+01 AA.
  Species N                   : Basic radial grid will be enhanced according to radial_multiplier =   1, to contain    35 grid points.

  Reading configuration options for species B                   .
  | Found nuclear charge :   5.0000
  | Found atomic mass :    10.811000000000000      amu
  | Found l_max for Hartree potential  :   4
  | Found cutoff potl. onset [A], width [A], scale factor :    3.50000    1.50000    1.00000
  | Threshold for basis-dependent cutoff potential is   0.100000E-03
  | Found data for basic radial integration grid :    32 points, outermost radius =    5.000 A
  | Found multiplier for basic radial grid :   1
  | Found angular grid specification: user-specified.
  | Specified grid contains     4 separate shells.
  | Check grid settings after all constraints further below.
  | Found free-atom valence shell :  2 s   2.000
  | Found free-atom valence shell :  2 p   1.000
  | No ionic wave fns used. Skipping ion_occ.
  | Found hydrogenic basis function :  2 p   1.400
  | Found hydrogenic basis function :  3 d   4.800
  | Found hydrogenic basis function :  2 s   4.000
  Species B                   : Missing cutoff potential type.
  Defaulting to exp(1/x)/(1-x)^2 type cutoff potential.
  Species B : No 'logarithmic' tag. Using default grid for free atom:
  | Default logarithmic grid data [bohr] : 0.1000E-03 0.1000E+03 0.1012E+01
  Species B : On-site basis accuracy parameter (for Gram-Schmidt orthonormalisation) not specified.
  Using default value basis_acc =  0.1000000E-03.
  Species B                   : Using default innermost maximum threshold i_radial=  2 for radial functions.
  Species B                   : Default cutoff onset for free atom density etc. : 0.35000000E+01 AA.
  Species B                   : Basic radial grid will be enhanced according to radial_multiplier =   1, to contain    32 grid points.

  Finished reading input file 'control.in'.

------------------------------------------------------------


------------------------------------------------------------
          Reading geometry description geometry.in.
------------------------------------------------------------
  | The smallest distance between any two atoms is         1.45055110 AA.
  | The first atom of this pair is atom number                      2 .
  | The second atom of this pair is atom number                     1 .
  | Wigner-Seitz cell of the first atom image           0     1     0 .
  | (The Wigner-Seitz cell of the second atom is 0 0 0  by definition.)

  Symmetry information by spglib:
  | Precision set to  0.1E-04
  | Number of Operations  : 12
  | Space group           : 187
  | International         : P-6m2
  | Schoenflies           : D3h^1
  Input structure read successfully.
  The structure contains        2 atoms,  and a total of         12.000 electrons.

  Input geometry:
  | Unit cell:
  |        2.51242823        0.00000000        0.00000000
  |       -1.25621411        2.17582667        0.00000000
  |        0.00000000        0.00000000      100.00000000
  | Atomic structure:
  |       Atom                x [A]            y [A]            z [A]
  |    1: Species N             1.25621413        0.72527555        1.92681625
  |    2: Species B            -0.00000001        1.45055112        1.92681625

  Lattice parameters for 3D lattice (in Angstroms) :     2.512428    2.512428  100.000000
  Angle(s) between unit vectors (in degrees)       :    90.000000   90.000000  120.000000


  Quantities derived from the lattice vectors:
  | Reciprocal lattice vector 1:  2.500842  1.443862  0.000000
  | Reciprocal lattice vector 2: -0.000000  2.887723  0.000000
  | Reciprocal lattice vector 3:  0.000000  0.000000  0.062832
  | Unit cell volume                               :   0.546661E+03  A^3

  Fractional coordinates:
                         L1                L2                L3
       atom_frac         0.66666667        0.33333333        0.01926816  N
       atom_frac         0.33333333        0.66666667        0.01926816  B


  Finished reading input file 'control.in'.


------------------------------------------------------------
          Reading geometry description geometry.in.
------------------------------------------------------------

  Consistency checks for the contents of control.in are next.

  MPI_IN_PLACE appears to work with this MPI implementation.
  | Keeping use_mpi_in_place .true. (see manual).
  Target number of points in a grid batch is not set. Defaulting to  100
  Method for grid partitioning is not set. Defaulting to parallel hash+maxmin partitioning.
  Batch size limit is not set. Defaulting to    200
  By default, will store active basis functions for each batch.
  If in need of memory, prune_basis_once .false. can be used to disable this option.
  communication_type for Hartree potential was not specified.
  Defaulting to calc_hartree .
  Defaulting to Pulay charge density mixer.
  Pulay mixer: Number of relevant iterations not set.
  Defaulting to    8 iterations.
  Pulay mixer: Number of initial linear mixing iterations not set.
  Defaulting to    0 iterations.
  Work space size for distributed Hartree potential not set.
  Defaulting to   0.200000E+03 MB.
  Mixing parameter for charge density mixing has not been set.
  Using default: charge_mix_param =     0.0500.
  The mixing parameter will be adjusted in iteration number     3 of each s.c.f. cycle (i.e., each geometry step).
  Algorithm-dependent basis array size parameters:
  | n_max_pulay                         :        8
  Presetting      1001 iterations before the initial mixing cycle
  is restarted anyway using the sc_init_iter criterion / keyword.
  Presetting a factor      1.000 between actual scf density residual
  and density convergence criterion sc_accuracy_rho below which sc_init_iter
  takes no effect.
 * No s.c.f. convergence criteria (sc_accuracy_*) were provided in control.in.
 * The run will proceed with a reasonable default guess, but please check whether.
 * the s.c.f. cycles seem to take too much or too little time.
  Calculation of forces was not defined in control.in. No forces will be calculated.
  Geometry relaxation not requested: no relaxation will be performed.
 * Notice: The s.c.f. convergence criterion sc_accuracy_rho was not provided.
 * We used to stop in this case, and ask the user to provide reasonable
 * scf convergence criteria. However, this led some users to employ criteria
 * that led to extremely long run times, e.g., for simple relaxation.
 * We now preset a default value for sc_accuracy_rho if it is not set.
 * You may still wish to check if this setting is too tight or too loose for your needs.
 * Based on n_atoms, FHI-aims chose sc_accuracy_rho =  0.100000E-05 .
  No accuracy limit for integral partition fn. given. Defaulting to  0.1000E-14.
  No threshold value for u(r) in integrations given. Defaulting to  0.1000E-05.
  No occupation type (smearing scheme) given. Defaulting to Gaussian broadening, width =  0.1000E-01 eV.
  The width will be adjusted in iteration number     3 of each s.c.f. cycle (i.e., each geometry step).
  S.C.F. convergence parameters will be adjusted in iteration number     3 of the first full s.c.f. cycle only.
  No accuracy for occupation numbers given. Defaulting to  0.1000E-12.
  No threshold value for occupation numbers given. Defaulting to  0.0000E+00.
  No accuracy for fermi level given. Defaulting to  0.1000E-19.
  Maximum # of iterations to find E_F not set. Defaulting to  200.
  Preferred method for the eigenvalue solver ('KS_method') not specified in 'control.in'.
  Defaulting to serial version, LAPACK (via ELSI), since more k-points than CPUs available.
  Will not use alltoall communication since running on < 1024 CPUs.
  Threshold for basis singularities not set.
  Default threshold for basis singularities:  0.1000E-04
  partition_type (choice of integration weights) for integrals was not specified.
  | Using a version of the partition function of Stratmann and coworkers ('stratmann_sparse').
  | At each grid point, the set of atoms used to build the partition table is smoothly restricted to
  | only those atoms whose free-atom density would be non-zero at that grid point.
  Partitioning for Hartree potential was not defined. Using partition_type for integrals.
  | Adjusted default value of keyword multip_moments_threshold to:       0.10000000E-11
  | This value may affect high angular momentum components of the Hartree potential in periodic systems.
  Angular momentum expansion for Kerker preconditioner not set explicitly.
  | Using default value of   0
  No explicit requirement for turning off preconditioner.
  | By default, it will be turned off when the charge convergence reaches
  | sc_accuracy_rho  =   0.100000E-05
  No special mixing parameter while Kerker preconditioner is on.
  Using default: charge_mix_param =     0.0500.
  No q(lm)/r^(l+1) cutoff set for long-range Hartree potential.
  | Using default value of  0.100000E-09 .
  | Verify using the multipole_threshold keyword.
  Defaulting to new monopole extrapolation.
  Density update method: automatic selection selected.
  Using density matrix based charge density update.
  Using density matrix based charge density update.
  Using packed matrix style: index .
  Defaulting to use time-reversal symmetry for k-point grid.
  Charge integration errors on the 3D integration grid will be compensated
  by explicit normalization and distribution of residual charges.
  Use the "compensate_multipole_errors" flag to change this behaviour.
  Set 'collect_eigenvectors' to be '.true.' for all serial calculations. This is mandatory.
  Set 'collect_eigenvectors' to be '.true.' for KS_method lapack_fast and serial.

  Consistency checks for the contents of geometry.in are next.


  Range separation radius for Ewald summation (hartree_convergence_parameter):      5.00000000 bohr.
 * Warning! You did not set the 'relativistic' flag in input file 'control.in'.
 * Since you are not attempting to treat any elements beyond Ca(Z=20), FHI-aims
 * will default to 'relativistic none'.
 * You must ensure that this is really what you want!!
 * For example, DO NOT compute total-energy differences between results from
 * different settings of the 'relativistic' flag.
  Number of empty states per atom not set in control.in - providing a guess from actual geometry.
  | Total number of empty states used during s.c.f. cycle:        6
  If you use a very high smearing, use empty_states (per atom!) in control.in to increase this value.

  Structure-dependent array size parameters: 
  | Maximum number of distinct radial functions  :       12
  | Maximum number of basis functions            :       28
  | Number of Kohn-Sham states (occupied + empty):       12
------------------------------------------------------------

------------------------------------------------------------
          Preparing all fixed parts of the calculation.
------------------------------------------------------------
  Determining machine precision:
     2.2250738585072014E-308
  Setting up grids for atomic and cluster calculations.

  Creating wave function, potential, and density for free atoms.

  Species: N

  List of occupied orbitals and eigenvalues:
    n    l              occ      energy [Ha]    energy [eV]
    1    0           2.0000       -14.128000      -384.4424
    2    0           2.0000        -0.681077       -18.5330
    2    1           3.0000        -0.259788        -7.0692


  Species: B

  List of occupied orbitals and eigenvalues:
    n    l              occ      energy [Ha]    energy [eV]
    1    0           2.0000        -6.627678      -180.3483
    2    0           2.0000        -0.342398        -9.3171
    2    1           1.0000        -0.127198        -3.4612


  Adding cutoff potential to free-atom effective potential.
  Creating fixed part of basis set: Ionic, confined, hydrogenic.

  N                    hydrogenic:

  List of hydrogenic basis orbitals: 
    n    l      effective z      eigenvalue [eV]  inner max. [A]     outer max. [A]     outer radius [A]   
    2    1         1.800000       -10.9749           1.177451           1.177451           4.573712
    3    2         6.800000       -69.9026           0.704619           0.704619           3.538137
    3    0         5.800000       -50.8545           0.067388           1.191934           4.250239


  B                    hydrogenic:

  List of hydrogenic basis orbitals: 
    n    l      effective z      eigenvalue [eV]  inner max. [A]     outer max. [A]     outer radius [A]   
    2    1         1.400000        -6.4613           1.476684           1.476684           4.603067
    3    2         4.800000       -34.8298           0.986467           0.986467           4.491886
    2    0         4.000000       -54.4224           0.101523           0.692014           3.560846

  Creating atomic-like basis functions for current effective potential.

  Species N                   :

  List of atomic basis orbitals and eigenvalues:
    n    l      energy [Ha]    energy [eV]    outer radius [A]
    1    0       -14.128000      -384.4424       1.637919
    2    0        -0.681077       -18.5330       4.463241
    2    1        -0.259788        -7.0692       4.518138


  Species B                   :

  List of atomic basis orbitals and eigenvalues:
    n    l      energy [Ha]    energy [eV]    outer radius [A]
    1    0        -6.627678      -180.3483       2.349843
    2    0        -0.342398        -9.3171       4.547137
    2    1        -0.127198        -3.4612       4.603067

  Assembling full basis from fixed parts.
  | Species N :   atomic orbital   1 s accepted.
  | Species N :    hydro orbital   3 s accepted.
  | Species N :   atomic orbital   2 s accepted.
  | Species N :   atomic orbital   2 p accepted.
  | Species N :    hydro orbital   2 p accepted.
  | Species N :    hydro orbital   3 d accepted.
  | Species B :   atomic orbital   1 s accepted.
  | Species B :    hydro orbital   2 s accepted.
  | Species B :   atomic orbital   2 s accepted.
  | Species B :   atomic orbital   2 p accepted.
  | Species B :    hydro orbital   2 p accepted.
  | Species B :    hydro orbital   3 d accepted.

  Basis size parameters after reduction:
  | Total number of radial functions:       12
  | Total number of basis functions :       28

  Per-task memory consumption for arrays in subroutine allocate_ext:
  |           2.973544MB.
  Testing on-site integration grid accuracy.
  |  Species  Function  <phi|h_atom|phi> (log., in eV)  <phi|h_atom|phi> (rad., in eV)
           1        1               -384.4424306490               -384.4423701203
           1        2                 12.5842251817                 12.5842222903
           1        3                -15.7264628251                -15.7264433455
           1        4                 -7.0696854293                 -7.0701769953
           1        5                  8.8090390882                  8.7901077752
           1        6                 35.9586762124                 35.9588528632
           2        7               -180.3483010064               -180.3482782419
           2        8                 -7.0477734954                 -7.0501173377
           2        9                 12.1042418713                 12.1105816015
           2       10                 -3.4673636341                 -3.4706752767
           2       11                  7.2087584975                  7.1750178124 ***
           2       12                 17.2133828126                 17.2125772675
 * Note: Onsite integrals marked "***" above are less accurate than
 * onsite_accuracy_threshold =    0.03000 eV. Usually, this is harmless.
 * When in doubt, tighten the "radial" and/or "radial_multiplier" flags to check.

  Preparing densities etc. for the partition functions (integrals / Hartree potential).

  Preparations completed.
  max(cpu_time)          :      0.083 s.
  Wall clock time (cpu1) :      0.081 s.
------------------------------------------------------------

------------------------------------------------------------
          Begin self-consistency loop: Initialization.

          Date     :  20210412, Time     :  141819.550
------------------------------------------------------------

  Initializing index lists of integration centers etc. from given atomic structure:
  Mapping all atomic coordinates to central unit cell.

  Initializing the k-points
  Using symmetry for reducing the k-points
  | k-points reduced from:      441 to      221
  | Number of k-points                             :       221
  The eigenvectors in the calculations are COMPLEX.
  | K-points in task   0:        55
  | K-points in task   1:        56
  | K-points in task   2:        55
  | K-points in task   3:        55
  | Number of basis functions in the Hamiltonian integrals :       588
  | Number of basis functions in a single unit cell        :        28
  | Number of centers in hartree potential         :       368
  | Number of centers in hartree multipole         :       152
  | Number of centers in electron density summation:       130
  | Number of centers in basis integrals           :       130
  | Number of centers in integrals                 :        56
  | Number of centers in hamiltonian               :       130
  | Consuming        262 KiB for k_phase.
  | Number of super-cells (origin) [n_cells]                     :        1083
  | Number of super-cells (after PM_index) [n_cells]             :          76
  | Number of super-cells in hamiltonian [n_cells_in_hamiltonian]:          76
  | Size of matrix packed + index [n_hamiltonian_matrix_size] :       17695
  | Estimated reciprocal-space cutoff momentum G_max:         1.84432723 bohr^-1 .
  | Reciprocal lattice points for long-range Hartree potential:     488
  Partitioning the integration grid into batches with parallel hashing+maxmin method.
  | Number of batches:      170
  | Maximal batch size:     107
  | Minimal batch size:      50
  | Average batch size:      76.882
  | Standard deviation of batch sizes:      20.706

  Integration load balanced across     4 MPI tasks.
  Work distribution over tasks is as follows:
  Task     0 has       3303 integration points.
  Task     1 has       3273 integration points.
  Task     2 has       3271 integration points.
  Task     3 has       3223 integration points.
  Initializing partition tables, free-atom densities, potentials, etc. across the integration grid (initialize_grid_storage).
  | initialize_grid_storage: Actual outermost partition radius vs. multipole_radius_free
  | (-- VB: in principle, multipole_radius_free should be larger, hence this output)
  | Species        1: Confinement radius =              4.999999999999999 AA, multipole_radius_free =              5.043624274424571 AA.
  | Species        1: outer_partition_radius set to              5.043624274424571 AA .
  | Species        2: Confinement radius =              4.999999999999999 AA, multipole_radius_free =              5.014318961829659 AA.
  | Species        2: outer_partition_radius set to              5.014318961829659 AA .
  | The sparse table of interatomic distances needs        108.19 kbyte instead of       135.20 kbyte of memory.
  | Net number of integration points:    13070
  | of which are non-zero points    :    11183
  | Numerical average free-atom electrostatic potential    :     -0.44452675 eV
  Renormalizing the initial density to the exact electron count on the 3D integration grid.
  | Initial density: Formal number of electrons (from input files) :      12.0000000000
  | Integrated number of electrons on 3D grid     :      12.0001051946
  | Charge integration error                      :       0.0001051946
  | Normalization factor for density and gradient :       0.9999912339
  Renormalizing the free-atom superposition density to the exact electron count on the 3D integration grid.
  | Formal number of electrons (from input files) :      12.0000000000
  | Integrated number of electrons on 3D grid     :      12.0001051946
  | Charge integration error                      :       0.0001051946
  | Normalization factor for density and gradient :       0.9999912339
  Obtaining max. number of non-zero basis functions in each batch (get_n_compute_maxes).
  | Maximal number of non-zero basis functions:      364 in task     0
  | Maximal number of non-zero basis functions:      371 in task     1
  | Maximal number of non-zero basis functions:      364 in task     2
  | Maximal number of non-zero basis functions:      369 in task     3
  Allocating        0.282 MB for KS_eigenvector_complex
  Integrating Hamiltonian matrix: batch-based integration.
  Time summed over all CPUs for integration: real work        0.315 s, elapsed        0.350 s
  Integrating overlap matrix.
  Time summed over all CPUs for integration: real work        0.231 s, elapsed        0.251 s
  Decreasing sparse matrix size:
  | Tolerance:  0.1000E-12
  Hamiltonian matrix
  | Array has    10004 nonzero elements out of    17695 elements
  | Sparsity factor is 0.435
  Overlap matrix
  | Array has     9266 nonzero elements out of    17695 elements
  | Sparsity factor is 0.476
  New size of hamiltonian matrix:       10086

  Updating Kohn-Sham eigenvalues and eigenvectors using ELSI and the (modified) LAPACK eigensolver.
  Singularity check in k-point 4, task 0 (analysis for other k-points/tasks may follow below):
  Overlap matrix is not singular
  | Lowest and highest eigenvalues :  0.1364E-02,  0.7926E+01
  Finished singularity check of overlap matrix
  | Time :     0.001 s
  Starting LAPACK eigensolver
  Finished Cholesky decomposition
  | Time :     0.000 s
  Finished transformation to standard eigenproblem
  | Time :     0.000 s
  Finished solving standard eigenproblem
  | Time :     0.000 s
  Finished back-transformation of eigenvectors
  | Time :     0.000 s

  Obtaining occupation numbers and chemical potential using ELSI.
  | Chemical potential (Fermi level):    -4.56365411 eV
  Writing Kohn-Sham eigenvalues.
  K-point:       1 at    0.000000    0.000000    0.000000 (in units of recip. lattice)

  State    Occupation    Eigenvalue [Ha]    Eigenvalue [eV]
      1       2.00000         -14.270660         -388.32443
      2       2.00000          -6.700146         -182.32025
      3       2.00000          -1.056127          -28.73867
      4       2.00000          -0.558592          -15.20007
      5       2.00000          -0.486869          -13.24837
      6       2.00000          -0.486868          -13.24835
      7       0.00000          -0.045495           -1.23798
      8       0.00000          -0.004465           -0.12151
      9       0.00000           0.035381            0.96278
     10       0.00000           0.035424            0.96392
     11       0.00000           0.193549            5.26674
     12       0.00000           0.328445            8.93745

  What follows are estimated values for band gap, HOMO, LUMO, etc.
  | They are estimated on a discrete k-point grid and not necessarily exact.
  | For converged numbers, create a DOS and/or band structure plot on a denser k-grid.

  Highest occupied state (VBM) at    -11.02705505 eV (relative to internal zero)
  | Occupation number:      2.00000000
  | K-point:     188 at    0.666667    0.666667    0.000000 (in units of recip. lattice)

  Lowest unoccupied state (CBM) at    -4.51698024 eV (relative to internal zero)
  | Occupation number:      0.00000000
  | K-point:     188 at    0.666667    0.666667    0.000000 (in units of recip. lattice)

  ESTIMATED overall HOMO-LUMO gap:      6.51007481 eV between HOMO at k-point 188 and LUMO at k-point 188
  | This appears to be a direct band gap.
  The gap value is above 0.2 eV. Unless you are using a very sparse k-point grid,
  this system is most likely an insulator or a semiconductor.
  Calculating total energy contributions from superposition of free atom densities.

  Total energy components:
  | Sum of eigenvalues            :         -47.31107836 Ha       -1287.39994433 eV
  | XC energy correction          :         -10.84570572 Ha        -295.12666855 eV
  | XC potential correction       :          13.93433343 Ha         379.17250469 eV
  | Free-atom electrostatic energy:         -35.49857067 Ha        -965.96525572 eV
  | Hartree energy correction     :          -0.00000000 Ha          -0.00000000 eV
  | Entropy correction            :          -0.00000000 Ha          -0.00000000 eV
  | ---------------------------
  | Total energy                  :         -79.72102132 Ha       -2169.31936390 eV
  | Total energy, T -> 0          :         -79.72102132 Ha       -2169.31936390 eV  <-- do not rely on this value for anything but (periodic) metals
  | Electronic free energy        :         -79.72102132 Ha       -2169.31936390 eV

  Derived energy quantities:
  | Kinetic energy                :          79.22130300 Ha        2155.72133651 eV
  | Electrostatic energy          :        -148.09661860 Ha       -4029.91403186 eV
  | Energy correction for multipole
  | error in Hartree potential    :           0.00000000 Ha           0.00000000 eV
  | Sum of eigenvalues per atom                           :        -643.69997216 eV
  | Total energy (T->0) per atom                          :       -1084.65968195 eV  <-- do not rely on this value for anything but (periodic) metals
  | Electronic free energy per atom                       :       -1084.65968195 eV
  Initialize hartree_potential_storage
  Max. number of atoms included in rho_multipole:            2

  End scf initialization - timings             :  max(cpu_time)    wall_clock(cpu1)
  | Time for scf. initialization               :        3.790 s           3.790 s
  | Boundary condition initialization          :        3.509 s           3.509 s
  | Integration                                :        0.151 s           0.152 s
  | Solution of K.-S. eqns.                    :        0.033 s           0.033 s
  | Grid partitioning                          :        0.018 s           0.018 s
  | Preloading free-atom quantities on grid    :        0.065 s           0.065 s
  | Free-atom superposition energy             :        0.011 s           0.011 s
  | Total energy evaluation                    :        0.000 s           0.001 s

  Partial memory accounting:
  | Current value for overall tracked memory usage:
  |   Minimum:        0.475 MB (on task 0)
  |   Maximum:        0.480 MB (on task 1)
  |   Average:        0.476 MB
  | Peak value for overall tracked memory usage:
  |   Minimum:        2.530 MB (on task 0 after allocating wave)
  |   Maximum:        2.592 MB (on task 1 after allocating wave)
  |   Average:        2.556 MB
  | Largest tracked array allocation so far:
  |   Minimum:        1.011 MB (hamiltonian_shell on task 0)
  |   Maximum:        1.050 MB (hamiltonian_shell on task 1)
  |   Average:        1.028 MB
  Note:  These values currently only include a subset of arrays which are explicitly tracked.
  The "true" memory usage will be greater.
------------------------------------------------------------
  Evaluating new KS density using the density matrix
  Evaluating density matrix
  Time summed over all CPUs for getting density from density matrix: real work        0.571 s, elapsed        0.600 s
  Integration grid: deviation in total charge (<rho> - N_e) =   1.936229E-13

------------------------------------------------------------
          Begin self-consistency iteration #    1

  Date     :  20210412, Time     :  141823.494
------------------------------------------------------------
  Pulay mixing of updated and previous charge densities.
  Renormalizing the density to the exact electron count on the 3D integration grid.
  | Formal number of electrons (from input files) :      12.0000000000
  | Integrated number of electrons on 3D grid     :      11.9997326981
  | Charge integration error                      :      -0.0002673019
  | Normalization factor for density and gradient :       1.0000222757

  Evaluating partitioned Hartree potential by multipole expansion.
  | Original multipole sum: apparent total charge =   0.195429E-13
  | Sum of charges compensated after spline to logarithmic grids =   0.536002E-05
  | Analytical far-field extrapolation by fixed multipoles:
  | Hartree multipole sum: apparent total charge =   0.194968E-13
  Summing up the Hartree potential.
  Time summed over all CPUs for potential: real work        0.490 s, elapsed        0.603 s
  | RMS charge density error from multipole expansion :   0.840316E-03
  | Average real-space part of the electrostatic potential :      0.00092560 eV

  Integrating Hamiltonian matrix: batch-based integration.
  Time summed over all CPUs for integration: real work        0.302 s, elapsed        0.330 s

  Updating Kohn-Sham eigenvalues and eigenvectors using ELSI and the (modified) LAPACK eigensolver.
  Starting LAPACK eigensolver
  Finished Cholesky decomposition
  | Time :     0.000 s
  Finished transformation to standard eigenproblem
  | Time :     0.000 s
  Finished solving standard eigenproblem
  | Time :     0.000 s
  Finished back-transformation of eigenvectors
  | Time :     0.000 s

  Obtaining occupation numbers and chemical potential using ELSI.
  | Chemical potential (Fermi level):    -4.39312052 eV
  Writing Kohn-Sham eigenvalues.
  K-point:       1 at    0.000000    0.000000    0.000000 (in units of recip. lattice)

  State    Occupation    Eigenvalue [Ha]    Eigenvalue [eV]
      1       2.00000         -14.241963         -387.54354
      2       2.00000          -6.692422         -182.11007
      3       2.00000          -1.042886          -28.37838
      4       2.00000          -0.547805          -14.90654
      5       2.00000          -0.471411          -12.82775
      6       2.00000          -0.471410          -12.82773
      7       0.00000          -0.037833           -1.02949
      8       0.00000           0.003776            0.10276
      9       0.00000           0.045442            1.23654
     10       0.00000           0.045485            1.23771
     11       0.00000           0.199930            5.44037
     12       0.00000           0.337562            9.18553

  What follows are estimated values for band gap, HOMO, LUMO, etc.
  | They are estimated on a discrete k-point grid and not necessarily exact.
  | For converged numbers, create a DOS and/or band structure plot on a denser k-grid.

  Highest occupied state (VBM) at    -10.63252339 eV (relative to internal zero)
  | Occupation number:      2.00000000
  | K-point:     188 at    0.666667    0.666667    0.000000 (in units of recip. lattice)

  Lowest unoccupied state (CBM) at    -4.34665057 eV (relative to internal zero)
  | Occupation number:      0.00000000
  | K-point:     188 at    0.666667    0.666667    0.000000 (in units of recip. lattice)

  ESTIMATED overall HOMO-LUMO gap:      6.28587282 eV between HOMO at k-point 188 and LUMO at k-point 188
  | This appears to be a direct band gap.
  The gap value is above 0.2 eV. Unless you are using a very sparse k-point grid,
  this system is most likely an insulator or a semiconductor.

  Total energy components:
  | Sum of eigenvalues            :         -47.13007509 Ha       -1282.47459492 eV
  | XC energy correction          :         -10.85774056 Ha        -295.45415308 eV
  | XC potential correction       :          13.94993132 Ha         379.59694492 eV
  | Free-atom electrostatic energy:         -35.49857067 Ha        -965.96525572 eV
  | Hartree energy correction     :          -0.17406424 Ha          -4.73652906 eV
  | Entropy correction            :          -0.00000000 Ha          -0.00000000 eV
  | ---------------------------
  | Total energy                  :         -79.71051924 Ha       -2169.03358785 eV
  | Total energy, T -> 0          :         -79.71051924 Ha       -2169.03358785 eV  <-- do not rely on this value for anything but (periodic) metals
  | Electronic free energy        :         -79.71051924 Ha       -2169.03358785 eV

  Derived energy quantities:
  | Kinetic energy                :          79.28998264 Ha        2157.59020473 eV
  | Electrostatic energy          :        -148.14276133 Ha       -4031.16963950 eV
  | Energy correction for multipole
  | error in Hartree potential    :           0.00147967 Ha           0.04026385 eV
  | Sum of eigenvalues per atom                           :        -641.23729746 eV
  | Total energy (T->0) per atom                          :       -1084.51679393 eV  <-- do not rely on this value for anything but (periodic) metals
  | Electronic free energy per atom                       :       -1084.51679393 eV

  Self-consistency convergence accuracy:
  | Change of charge density      :  0.2879E+00
  | Change of sum of eigenvalues  :  0.4925E+01 eV
  | Change of total energy        :  0.2858E+00 eV

  Evaluating new KS density using the density matrix
  Evaluating density matrix
  Time summed over all CPUs for getting density from density matrix: real work        0.609 s, elapsed        0.650 s
  Integration grid: deviation in total charge (<rho> - N_e) =   2.291500E-13
  End self-consistency iteration #     1       :  max(cpu_time)    wall_clock(cpu1)
  | Time for this iteration                    :        0.471 s           0.471 s
  | Charge density update                      :        0.165 s           0.165 s
  | Density mixing & preconditioning           :        0.043 s           0.043 s
  | Hartree multipole update                   :        0.001 s           0.001 s
  | Hartree multipole summation                :        0.154 s           0.153 s
  | Integration                                :        0.083 s           0.084 s
  | Solution of K.-S. eqns.                    :        0.023 s           0.023 s
  | Total energy evaluation                    :        0.001 s           0.000 s

  Partial memory accounting:
  | Current value for overall tracked memory usage:
  |   Minimum:        0.475 MB (on task 0)
  |   Maximum:        0.480 MB (on task 1)
  |   Average:        0.476 MB
  | Peak value for overall tracked memory usage:
  |   Minimum:        3.268 MB (on task 0 after allocating gradient_basis_wave)
  |   Maximum:        3.347 MB (on task 1 after allocating gradient_basis_wave)
  |   Average:        3.301 MB
  | Largest tracked array allocation so far:
  |   Minimum:        1.011 MB (hamiltonian_shell on task 0)
  |   Maximum:        1.050 MB (hamiltonian_shell on task 1)
  |   Average:        1.028 MB
  Note:  These values currently only include a subset of arrays which are explicitly tracked.
  The "true" memory usage will be greater.
------------------------------------------------------------

------------------------------------------------------------
          Begin self-consistency iteration #    2

  Date     :  20210412, Time     :  141823.969
------------------------------------------------------------
  Pulay mixing of updated and previous charge densities.
  Renormalizing the density to the exact electron count on the 3D integration grid.
  | Formal number of electrons (from input files) :      12.0000000000
  | Integrated number of electrons on 3D grid     :      11.9974130864
  | Charge integration error                      :      -0.0025869136
  | Normalization factor for density and gradient :       1.0002156226

  Evaluating partitioned Hartree potential by multipole expansion.
  | Original multipole sum: apparent total charge =   0.135534E-13
  | Sum of charges compensated after spline to logarithmic grids =   0.529964E-04
  | Analytical far-field extrapolation by fixed multipoles:
  | Hartree multipole sum: apparent total charge =   0.138731E-13
  Summing up the Hartree potential.
  Time summed over all CPUs for potential: real work        0.500 s, elapsed        0.600 s
  | RMS charge density error from multipole expansion :   0.873500E-02
  | Average real-space part of the electrostatic potential :      0.00929653 eV

  Integrating Hamiltonian matrix: batch-based integration.
  Time summed over all CPUs for integration: real work        0.315 s, elapsed        0.372 s

  Updating Kohn-Sham eigenvalues and eigenvectors using ELSI and the (modified) LAPACK eigensolver.
  Starting LAPACK eigensolver
  Finished Cholesky decomposition
  | Time :     0.000 s
  Finished transformation to standard eigenproblem
  | Time :     0.001 s
  Finished solving standard eigenproblem
  | Time :     0.000 s
  Finished back-transformation of eigenvectors
  | Time :     0.000 s

  Obtaining occupation numbers and chemical potential using ELSI.
  | Chemical potential (Fermi level):    -2.78292841 eV
  What follows are estimated values for band gap, HOMO, LUMO, etc.
  | They are estimated on a discrete k-point grid and not necessarily exact.
  | For converged numbers, create a DOS and/or band structure plot on a denser k-grid.

  Highest occupied state (VBM) at     -7.15693873 eV (relative to internal zero)
  | Occupation number:      2.00000000
  | K-point:     188 at    0.666667    0.666667    0.000000 (in units of recip. lattice)

  Lowest unoccupied state (CBM) at    -2.73596661 eV (relative to internal zero)
  | Occupation number:      0.00000000
  | K-point:     188 at    0.666667    0.666667    0.000000 (in units of recip. lattice)

  ESTIMATED overall HOMO-LUMO gap:      4.42097212 eV between HOMO at k-point 188 and LUMO at k-point 188
  | This appears to be a direct band gap.
  The gap value is above 0.2 eV. Unless you are using a very sparse k-point grid,
  this system is most likely an insulator or a semiconductor.

  Total energy components:
  | Sum of eigenvalues            :         -45.51149230 Ha       -1238.43071602 eV
  | XC energy correction          :         -10.97180817 Ha        -298.55809086 eV
  | XC potential correction       :          14.09750971 Ha         383.61275713 eV
  | Free-atom electrostatic energy:         -35.49857067 Ha        -965.96525572 eV
  | Hartree energy correction     :          -1.77821518 Ha         -48.38769706 eV
  | Entropy correction            :          -0.00000000 Ha          -0.00000000 eV
  | ---------------------------
  | Total energy                  :         -79.66257662 Ha       -2167.72900253 eV
  | Total energy, T -> 0          :         -79.66257662 Ha       -2167.72900253 eV  <-- do not rely on this value for anything but (periodic) metals
  | Electronic free energy        :         -79.66257662 Ha       -2167.72900253 eV

  Derived energy quantities:
  | Kinetic energy                :          79.81822758 Ha        2171.96448070 eV
  | Electrostatic energy          :        -148.50899602 Ha       -4041.13539237 eV
  | Energy correction for multipole
  | error in Hartree potential    :           0.01492232 Ha           0.40605708 eV
  | Sum of eigenvalues per atom                           :        -619.21535801 eV
  | Total energy (T->0) per atom                          :       -1083.86450127 eV  <-- do not rely on this value for anything but (periodic) metals
  | Electronic free energy per atom                       :       -1083.86450127 eV

  Self-consistency convergence accuracy:
  | Change of charge density      :  0.2620E+00
  | Change of sum of eigenvalues  :  0.4404E+02 eV
  | Change of total energy        :  0.1305E+01 eV

  Evaluating new KS density using the density matrix
  Evaluating density matrix
  Time summed over all CPUs for getting density from density matrix: real work        0.578 s, elapsed        0.597 s
  Integration grid: deviation in total charge (<rho> - N_e) =   1.492140E-13
  End self-consistency iteration #     2       :  max(cpu_time)    wall_clock(cpu1)
  | Time for this iteration                    :        0.474 s           0.474 s
  | Charge density update                      :        0.153 s           0.153 s
  | Density mixing & preconditioning           :        0.046 s           0.046 s
  | Hartree multipole update                   :        0.001 s           0.001 s
  | Hartree multipole summation                :        0.155 s           0.155 s
  | Integration                                :        0.094 s           0.094 s
  | Solution of K.-S. eqns.                    :        0.023 s           0.023 s
  | Total energy evaluation                    :        0.002 s           0.001 s

  Partial memory accounting:
  | Current value for overall tracked memory usage:
  |   Minimum:        0.475 MB (on task 0)
  |   Maximum:        0.480 MB (on task 1)
  |   Average:        0.477 MB
  | Peak value for overall tracked memory usage:
  |   Minimum:        3.269 MB (on task 0 after allocating gradient_basis_wave)
  |   Maximum:        3.348 MB (on task 1 after allocating gradient_basis_wave)
  |   Average:        3.302 MB
  | Largest tracked array allocation so far:
  |   Minimum:        1.011 MB (hamiltonian_shell on task 0)
  |   Maximum:        1.050 MB (hamiltonian_shell on task 1)
  |   Average:        1.028 MB
  Note:  These values currently only include a subset of arrays which are explicitly tracked.
  The "true" memory usage will be greater.
------------------------------------------------------------

------------------------------------------------------------
          Begin self-consistency iteration #    3

  Date     :  20210412, Time     :  141824.444
------------------------------------------------------------
  Pulay mixing of updated and previous charge densities.
  Renormalizing the density to the exact electron count on the 3D integration grid.
  | Formal number of electrons (from input files) :      12.0000000000
  | Integrated number of electrons on 3D grid     :      11.9984058145
  | Charge integration error                      :      -0.0015941855
  | Normalization factor for density and gradient :       1.0001328664

  Evaluating partitioned Hartree potential by multipole expansion.
  | Original multipole sum: apparent total charge =   0.292713E-14
  | Sum of charges compensated after spline to logarithmic grids =   0.516023E-04
  | Analytical far-field extrapolation by fixed multipoles:
  | Hartree multipole sum: apparent total charge =   0.273035E-14
  Summing up the Hartree potential.
  Time summed over all CPUs for potential: real work        0.630 s, elapsed        0.737 s
  | RMS charge density error from multipole expansion :   0.125519E-01
  | Average real-space part of the electrostatic potential :      0.01075667 eV

  Integrating Hamiltonian matrix: batch-based integration.
  Time summed over all CPUs for integration: real work        0.292 s, elapsed        0.304 s

  Updating Kohn-Sham eigenvalues and eigenvectors using ELSI and the (modified) LAPACK eigensolver.
  Starting LAPACK eigensolver
  Finished Cholesky decomposition
  | Time :     0.000 s
  Finished transformation to standard eigenproblem
  | Time :     0.000 s
  Finished solving standard eigenproblem
  | Time :     0.000 s
  Finished back-transformation of eigenvectors
  | Time :     0.000 s

  Obtaining occupation numbers and chemical potential using ELSI.
  | Chemical potential (Fermi level):    -2.18151825 eV
  What follows are estimated values for band gap, HOMO, LUMO, etc.
  | They are estimated on a discrete k-point grid and not necessarily exact.
  | For converged numbers, create a DOS and/or band structure plot on a denser k-grid.

  Highest occupied state (VBM) at     -6.71711365 eV (relative to internal zero)
  | Occupation number:      2.00000000
  | K-point:     188 at    0.666667    0.666667    0.000000 (in units of recip. lattice)

  Lowest unoccupied state (CBM) at    -2.13537579 eV (relative to internal zero)
  | Occupation number:      0.00000000
  | K-point:     188 at    0.666667    0.666667    0.000000 (in units of recip. lattice)

  ESTIMATED overall HOMO-LUMO gap:      4.58173786 eV between HOMO at k-point 188 and LUMO at k-point 188
  | This appears to be a direct band gap.
  The gap value is above 0.2 eV. Unless you are using a very sparse k-point grid,
  this system is most likely an insulator or a semiconductor.

  Checking to see if s.c.f. parameters should be adjusted.
  The system likely has a gap. Increased the default Pulay mixing parameter (charge_mix_param). Value:   0.200000 .
  Kept the default occupation width. Value:   0.010000 eV.

  Total energy components:
  | Sum of eigenvalues            :         -45.24202544 Ha       -1231.09814975 eV
  | XC energy correction          :         -10.97664378 Ha        -298.68967453 eV
  | XC potential correction       :          14.10434130 Ha         383.79865412 eV
  | Free-atom electrostatic energy:         -35.49857067 Ha        -965.96525572 eV
  | Hartree energy correction     :          -2.04733318 Ha         -55.71077040 eV
  | Entropy correction            :          -0.00000000 Ha          -0.00000000 eV
  | ---------------------------
  | Total energy                  :         -79.66023178 Ha       -2167.66519628 eV
  | Total energy, T -> 0          :         -79.66023178 Ha       -2167.66519628 eV  <-- do not rely on this value for anything but (periodic) metals
  | Electronic free energy        :         -79.66023178 Ha       -2167.66519628 eV

  Derived energy quantities:
  | Kinetic energy                :          79.65766815 Ha        2167.59543640 eV
  | Electrostatic energy          :        -148.34125614 Ha       -4036.57095815 eV
  | Energy correction for multipole
  | error in Hartree potential    :           0.02046506 Ha           0.55688274 eV
  | Sum of eigenvalues per atom                           :        -615.54907487 eV
  | Total energy (T->0) per atom                          :       -1083.83259814 eV  <-- do not rely on this value for anything but (periodic) metals
  | Electronic free energy per atom                       :       -1083.83259814 eV

  Self-consistency convergence accuracy:
  | Change of charge density      :  0.9005E-01
  | Change of sum of eigenvalues  :  0.7333E+01 eV
  | Change of total energy        :  0.6381E-01 eV

  Evaluating new KS density using the density matrix
  Evaluating density matrix
  Time summed over all CPUs for getting density from density matrix: real work        0.606 s, elapsed        0.665 s
  Integration grid: deviation in total charge (<rho> - N_e) =   3.090861E-13
  End self-consistency iteration #     3       :  max(cpu_time)    wall_clock(cpu1)
  | Time for this iteration                    :        0.509 s           0.509 s
  | Charge density update                      :        0.169 s           0.168 s
  | Density mixing & preconditioning           :        0.056 s           0.056 s
  | Hartree multipole update                   :        0.002 s           0.002 s
  | Hartree multipole summation                :        0.188 s           0.188 s
  | Integration                                :        0.077 s           0.076 s
  | Solution of K.-S. eqns.                    :        0.016 s           0.016 s
  | Total energy evaluation                    :        0.002 s           0.001 s

  Partial memory accounting:
  | Current value for overall tracked memory usage:
  |   Minimum:        0.475 MB (on task 0)
  |   Maximum:        0.480 MB (on task 1)
  |   Average:        0.477 MB
  | Peak value for overall tracked memory usage:
  |   Minimum:        3.269 MB (on task 0 after allocating gradient_basis_wave)
  |   Maximum:        3.348 MB (on task 1 after allocating gradient_basis_wave)
  |   Average:        3.302 MB
  | Largest tracked array allocation so far:
  |   Minimum:        1.011 MB (hamiltonian_shell on task 0)
  |   Maximum:        1.050 MB (hamiltonian_shell on task 1)
  |   Average:        1.028 MB
  Note:  These values currently only include a subset of arrays which are explicitly tracked.
  The "true" memory usage will be greater.
------------------------------------------------------------

------------------------------------------------------------
          Begin self-consistency iteration #    4

  Date     :  20210412, Time     :  141824.955
------------------------------------------------------------
  Pulay mixing of updated and previous charge densities.
  Renormalizing the density to the exact electron count on the 3D integration grid.
  | Formal number of electrons (from input files) :      12.0000000000
  | Integrated number of electrons on 3D grid     :      11.9981834983
  | Charge integration error                      :      -0.0018165017
  | Normalization factor for density and gradient :       1.0001513981

  Evaluating partitioned Hartree potential by multipole expansion.
  | Original multipole sum: apparent total charge =   0.150784E-13
  | Sum of charges compensated after spline to logarithmic grids =   0.542780E-04
  | Analytical far-field extrapolation by fixed multipoles:
  | Hartree multipole sum: apparent total charge =   0.155212E-13
  Summing up the Hartree potential.
  Time summed over all CPUs for potential: real work        0.614 s, elapsed        0.660 s
  | RMS charge density error from multipole expansion :   0.175701E-01
  | Average real-space part of the electrostatic potential :      0.01298481 eV

  Integrating Hamiltonian matrix: batch-based integration.
  Time summed over all CPUs for integration: real work        0.392 s, elapsed        0.410 s

  Updating Kohn-Sham eigenvalues and eigenvectors using ELSI and the (modified) LAPACK eigensolver.
  Starting LAPACK eigensolver
  Finished Cholesky decomposition
  | Time :     0.000 s
  Finished transformation to standard eigenproblem
  | Time :     0.000 s
  Finished solving standard eigenproblem
  | Time :     0.000 s
  Finished back-transformation of eigenvectors
  | Time :     0.001 s

  Obtaining occupation numbers and chemical potential using ELSI.
  | Chemical potential (Fermi level):    -1.42318575 eV
  What follows are estimated values for band gap, HOMO, LUMO, etc.
  | They are estimated on a discrete k-point grid and not necessarily exact.
  | For converged numbers, create a DOS and/or band structure plot on a denser k-grid.

  Highest occupied state (VBM) at     -6.06697120 eV (relative to internal zero)
  | Occupation number:      2.00000000
  | K-point:     188 at    0.666667    0.666667    0.000000 (in units of recip. lattice)

  Lowest unoccupied state (CBM) at    -1.37679558 eV (relative to internal zero)
  | Occupation number:      0.00000000
  | K-point:     188 at    0.666667    0.666667    0.000000 (in units of recip. lattice)

  ESTIMATED overall HOMO-LUMO gap:      4.69017563 eV between HOMO at k-point 188 and LUMO at k-point 188
  | This appears to be a direct band gap.
  The gap value is above 0.2 eV. Unless you are using a very sparse k-point grid,
  this system is most likely an insulator or a semiconductor.

  Total energy components:
  | Sum of eigenvalues            :         -44.86663850 Ha       -1220.88335131 eV
  | XC energy correction          :         -10.98907199 Ha        -299.02786334 eV
  | XC potential correction       :          14.12086531 Ha         384.24829546 eV
  | Free-atom electrostatic energy:         -35.49857067 Ha        -965.96525572 eV
  | Hartree energy correction     :          -2.42593164 Ha         -66.01295851 eV
  | Entropy correction            :          -0.00000000 Ha          -0.00000000 eV
  | ---------------------------
  | Total energy                  :         -79.65934748 Ha       -2167.64113342 eV
  | Total energy, T -> 0          :         -79.65934748 Ha       -2167.64113342 eV  <-- do not rely on this value for anything but (periodic) metals
  | Electronic free energy        :         -79.65934748 Ha       -2167.64113342 eV

  Derived energy quantities:
  | Kinetic energy                :          79.47087906 Ha        2162.51264659 eV
  | Electrostatic energy          :        -148.14115455 Ha       -4031.12591667 eV
  | Energy correction for multipole
  | error in Hartree potential    :           0.02787086 Ha           0.75840463 eV
  | Sum of eigenvalues per atom                           :        -610.44167566 eV
  | Total energy (T->0) per atom                          :       -1083.82056671 eV  <-- do not rely on this value for anything but (periodic) metals
  | Electronic free energy per atom                       :       -1083.82056671 eV

  Self-consistency convergence accuracy:
  | Change of charge density      :  0.5027E-01
  | Change of sum of eigenvalues  :  0.1021E+02 eV
  | Change of total energy        :  0.2406E-01 eV

  Evaluating new KS density using the density matrix
  Evaluating density matrix
  Time summed over all CPUs for getting density from density matrix: real work        0.649 s, elapsed        0.695 s
  Integration grid: deviation in total charge (<rho> - N_e) =   2.451372E-13
  End self-consistency iteration #     4       :  max(cpu_time)    wall_clock(cpu1)
  | Time for this iteration                    :        0.538 s           0.538 s
  | Charge density update                      :        0.177 s           0.177 s
  | Density mixing & preconditioning           :        0.064 s           0.064 s
  | Hartree multipole update                   :        0.002 s           0.002 s
  | Hartree multipole summation                :        0.169 s           0.169 s
  | Integration                                :        0.103 s           0.104 s
  | Solution of K.-S. eqns.                    :        0.021 s           0.020 s
  | Total energy evaluation                    :        0.001 s           0.001 s

  Partial memory accounting:
  | Current value for overall tracked memory usage:
  |   Minimum:        0.475 MB (on task 0)
  |   Maximum:        0.480 MB (on task 1)
  |   Average:        0.477 MB
  | Peak value for overall tracked memory usage:
  |   Minimum:        3.269 MB (on task 0 after allocating gradient_basis_wave)
  |   Maximum:        3.348 MB (on task 1 after allocating gradient_basis_wave)
  |   Average:        3.302 MB
  | Largest tracked array allocation so far:
  |   Minimum:        1.011 MB (hamiltonian_shell on task 0)
  |   Maximum:        1.050 MB (hamiltonian_shell on task 1)
  |   Average:        1.028 MB
  Note:  These values currently only include a subset of arrays which are explicitly tracked.
  The "true" memory usage will be greater.
------------------------------------------------------------

------------------------------------------------------------
          Begin self-consistency iteration #    5

  Date     :  20210412, Time     :  141825.494
------------------------------------------------------------
  Pulay mixing of updated and previous charge densities.
  Renormalizing the density to the exact electron count on the 3D integration grid.
  | Formal number of electrons (from input files) :      12.0000000000
  | Integrated number of electrons on 3D grid     :      12.0007545354
  | Charge integration error                      :       0.0007545354
  | Normalization factor for density and gradient :       0.9999371260

  Evaluating partitioned Hartree potential by multipole expansion.
  | Original multipole sum: apparent total charge =   0.207851E-13
  | Sum of charges compensated after spline to logarithmic grids =   0.620820E-04
  | Analytical far-field extrapolation by fixed multipoles:
  | Hartree multipole sum: apparent total charge =   0.211787E-13
  Summing up the Hartree potential.
  Time summed over all CPUs for potential: real work        0.545 s, elapsed        0.570 s
  | RMS charge density error from multipole expansion :   0.180389E-01
  | Average real-space part of the electrostatic potential :      0.01348494 eV

  Integrating Hamiltonian matrix: batch-based integration.
  Time summed over all CPUs for integration: real work        0.297 s, elapsed        0.328 s

  Updating Kohn-Sham eigenvalues and eigenvectors using ELSI and the (modified) LAPACK eigensolver.
  Starting LAPACK eigensolver
  Finished Cholesky decomposition
  | Time :     0.000 s
  Finished transformation to standard eigenproblem
  | Time :     0.000 s
  Finished solving standard eigenproblem
  | Time :     0.000 s
  Finished back-transformation of eigenvectors
  | Time :     0.000 s

  Obtaining occupation numbers and chemical potential using ELSI.
  | Chemical potential (Fermi level):    -1.54581306 eV
  What follows are estimated values for band gap, HOMO, LUMO, etc.
  | They are estimated on a discrete k-point grid and not necessarily exact.
  | For converged numbers, create a DOS and/or band structure plot on a denser k-grid.

  Highest occupied state (VBM) at     -6.15479000 eV (relative to internal zero)
  | Occupation number:      2.00000000
  | K-point:     188 at    0.666667    0.666667    0.000000 (in units of recip. lattice)

  Lowest unoccupied state (CBM) at    -1.49941323 eV (relative to internal zero)
  | Occupation number:      0.00000000
  | K-point:     188 at    0.666667    0.666667    0.000000 (in units of recip. lattice)

  ESTIMATED overall HOMO-LUMO gap:      4.65537677 eV between HOMO at k-point 188 and LUMO at k-point 188
  | This appears to be a direct band gap.
  The gap value is above 0.2 eV. Unless you are using a very sparse k-point grid,
  this system is most likely an insulator or a semiconductor.

  Total energy components:
  | Sum of eigenvalues            :         -44.92976448 Ha       -1222.60109676 eV
  | XC energy correction          :         -10.98409643 Ha        -298.89247135 eV
  | XC potential correction       :          14.11453125 Ha         384.07593687 eV
  | Free-atom electrostatic energy:         -35.49857067 Ha        -965.96525572 eV
  | Hartree energy correction     :          -2.36139533 Ha         -64.25683625 eV
  | Entropy correction            :          -0.00000000 Ha          -0.00000000 eV
  | ---------------------------
  | Total energy                  :         -79.65929566 Ha       -2167.63972321 eV
  | Total energy, T -> 0          :         -79.65929566 Ha       -2167.63972321 eV  <-- do not rely on this value for anything but (periodic) metals
  | Electronic free energy        :         -79.65929566 Ha       -2167.63972321 eV

  Derived energy quantities:
  | Kinetic energy                :          79.41398232 Ha        2160.96440766 eV
  | Electrostatic energy          :        -148.08918155 Ha       -4029.71165952 eV
  | Energy correction for multipole
  | error in Hartree potential    :           0.02905031 Ha           0.79049922 eV
  | Sum of eigenvalues per atom                           :        -611.30054838 eV
  | Total energy (T->0) per atom                          :       -1083.81986160 eV  <-- do not rely on this value for anything but (periodic) metals
  | Electronic free energy per atom                       :       -1083.81986160 eV

  Self-consistency convergence accuracy:
  | Change of charge density      :  0.8581E-02
  | Change of sum of eigenvalues  : -0.1718E+01 eV
  | Change of total energy        :  0.1410E-02 eV

  Evaluating new KS density using the density matrix
  Evaluating density matrix
  Time summed over all CPUs for getting density from density matrix: real work        0.550 s, elapsed        0.619 s
  Integration grid: deviation in total charge (<rho> - N_e) =   2.433609E-13
  End self-consistency iteration #     5       :  max(cpu_time)    wall_clock(cpu1)
  | Time for this iteration                    :        0.487 s           0.487 s
  | Charge density update                      :        0.158 s           0.158 s
  | Density mixing & preconditioning           :        0.075 s           0.075 s
  | Hartree multipole update                   :        0.001 s           0.001 s
  | Hartree multipole summation                :        0.147 s           0.147 s
  | Integration                                :        0.083 s           0.083 s
  | Solution of K.-S. eqns.                    :        0.022 s           0.022 s
  | Total energy evaluation                    :        0.001 s           0.000 s

  Partial memory accounting:
  | Current value for overall tracked memory usage:
  |   Minimum:        0.475 MB (on task 0)
  |   Maximum:        0.480 MB (on task 1)
  |   Average:        0.477 MB
  | Peak value for overall tracked memory usage:
  |   Minimum:        3.269 MB (on task 0 after allocating gradient_basis_wave)
  |   Maximum:        3.348 MB (on task 1 after allocating gradient_basis_wave)
  |   Average:        3.302 MB
  | Largest tracked array allocation so far:
  |   Minimum:        1.011 MB (hamiltonian_shell on task 0)
  |   Maximum:        1.050 MB (hamiltonian_shell on task 1)
  |   Average:        1.028 MB
  Note:  These values currently only include a subset of arrays which are explicitly tracked.
  The "true" memory usage will be greater.
------------------------------------------------------------

------------------------------------------------------------
          Begin self-consistency iteration #    6

  Date     :  20210412, Time     :  141825.983
------------------------------------------------------------
  Pulay mixing of updated and previous charge densities.
  Renormalizing the density to the exact electron count on the 3D integration grid.
  | Formal number of electrons (from input files) :      12.0000000000
  | Integrated number of electrons on 3D grid     :      11.9998722926
  | Charge integration error                      :      -0.0001277074
  | Normalization factor for density and gradient :       1.0000106424

  Evaluating partitioned Hartree potential by multipole expansion.
  | Original multipole sum: apparent total charge =   0.735472E-14
  | Sum of charges compensated after spline to logarithmic grids =   0.615660E-04
  | Analytical far-field extrapolation by fixed multipoles:
  | Hartree multipole sum: apparent total charge =   0.779748E-14
  Summing up the Hartree potential.
  Time summed over all CPUs for potential: real work        0.567 s, elapsed        0.592 s
  | RMS charge density error from multipole expansion :   0.180407E-01
  | Average real-space part of the electrostatic potential :      0.01343013 eV

  Integrating Hamiltonian matrix: batch-based integration.
  Time summed over all CPUs for integration: real work        0.371 s, elapsed        0.397 s

  Updating Kohn-Sham eigenvalues and eigenvectors using ELSI and the (modified) LAPACK eigensolver.
  Starting LAPACK eigensolver
  Finished Cholesky decomposition
  | Time :     0.000 s
  Finished transformation to standard eigenproblem
  | Time :     0.000 s
  Finished solving standard eigenproblem
  | Time :     0.000 s
  Finished back-transformation of eigenvectors
  | Time :     0.000 s

  Obtaining occupation numbers and chemical potential using ELSI.
  | Chemical potential (Fermi level):    -1.53428161 eV
  What follows are estimated values for band gap, HOMO, LUMO, etc.
  | They are estimated on a discrete k-point grid and not necessarily exact.
  | For converged numbers, create a DOS and/or band structure plot on a denser k-grid.

  Highest occupied state (VBM) at     -6.15217409 eV (relative to internal zero)
  | Occupation number:      2.00000000
  | K-point:     188 at    0.666667    0.666667    0.000000 (in units of recip. lattice)

  Lowest unoccupied state (CBM) at    -1.48763200 eV (relative to internal zero)
  | Occupation number:      0.00000000
  | K-point:     188 at    0.666667    0.666667    0.000000 (in units of recip. lattice)

  ESTIMATED overall HOMO-LUMO gap:      4.66454209 eV between HOMO at k-point 188 and LUMO at k-point 188
  | This appears to be a direct band gap.
  The gap value is above 0.2 eV. Unless you are using a very sparse k-point grid,
  this system is most likely an insulator or a semiconductor.

  Total energy components:
  | Sum of eigenvalues            :         -44.92690703 Ha       -1222.52334155 eV
  | XC energy correction          :         -10.98417546 Ha        -298.89462199 eV
  | XC potential correction       :          14.11462736 Ha         384.07855207 eV
  | Free-atom electrostatic energy:         -35.49857067 Ha        -965.96525572 eV
  | Hartree energy correction     :          -2.36426614 Ha         -64.33495491 eV
  | Entropy correction            :          -0.00000000 Ha          -0.00000000 eV
  | ---------------------------
  | Total energy                  :         -79.65929194 Ha       -2167.63962210 eV
[...]
  | Occupation number:      0.00000000
  | K-point:     188 at    0.666667    0.666667    0.000000 (in units of recip. lattice)

  ESTIMATED overall HOMO-LUMO gap:      4.64317538 eV between HOMO at k-point 188 and LUMO at k-point 188
  | This appears to be a direct band gap.
  The gap value is above 0.2 eV. Unless you are using a very sparse k-point grid,
  this system is most likely an insulator or a semiconductor.

  Total energy components:
  | Sum of eigenvalues            :         -44.88917179 Ha       -1221.49651354 eV
  | XC energy correction          :         -10.98582470 Ha        -298.93949992 eV
  | XC potential correction       :          14.11673148 Ha         384.13580831 eV
  | Free-atom electrostatic energy:         -35.49857067 Ha        -965.96525572 eV
  | Hartree energy correction     :          -2.40240866 Ha         -65.37286588 eV
  | Entropy correction            :          -0.00000000 Ha          -0.00000000 eV
  | ---------------------------
  | Total energy                  :         -79.65924434 Ha       -2167.63832675 eV
  | Total energy, T -> 0          :         -79.65924434 Ha       -2167.63832675 eV  <-- do not rely on this value for anything but (periodic) metals
  | Electronic free energy        :         -79.65924434 Ha       -2167.63832675 eV

  Derived energy quantities:
  | Kinetic energy                :          79.39880724 Ha        2160.55147253 eV
  | Electrostatic energy          :        -148.07222688 Ha       -4029.25029936 eV
  | Energy correction for multipole
  | error in Hartree potential    :           0.02925731 Ha           0.79613186 eV
  | Sum of eigenvalues per atom                           :        -610.74825677 eV
  | Total energy (T->0) per atom                          :       -1083.81916337 eV  <-- do not rely on this value for anything but (periodic) metals
  | Electronic free energy per atom                       :       -1083.81916337 eV

  Self-consistency convergence accuracy:
  | Change of charge density      :  0.5711E-06
  | Change of sum of eigenvalues  : -0.5083E-05 eV
  | Change of total energy        : -0.6688E-08 eV

  Preliminary charge convergence reached. Turning off preconditioner.

  Writing Kohn-Sham eigenvalues.
  K-point:       1 at    0.000000    0.000000    0.000000 (in units of recip. lattice)

  State    Occupation    Eigenvalue [Ha]    Eigenvalue [eV]
      1       2.00000         -13.968200         -380.09406
      2       2.00000          -6.531797         -177.73925
      3       2.00000          -0.872137          -23.73204
      4       2.00000          -0.413163          -11.24274
      5       2.00000          -0.275853           -7.50633
      6       2.00000          -0.275851           -7.50628
      7       0.00000           0.066461            1.80849
      8       0.00000           0.098224            2.67280
      9       0.00000           0.196947            5.35919
     10       0.00000           0.196996            5.36053
     11       0.00000           0.319861            8.70386
     12       0.00000           0.474426           12.90979

  What follows are estimated values for band gap, HOMO, LUMO, etc.
  | They are estimated on a discrete k-point grid and not necessarily exact.
  | For converged numbers, create a DOS and/or band structure plot on a denser k-grid.

  Highest occupied state (VBM) at     -6.05056872 eV (relative to internal zero)
  | Occupation number:      2.00000000
  | K-point:     188 at    0.666667    0.666667    0.000000 (in units of recip. lattice)

  Lowest unoccupied state (CBM) at    -1.40739335 eV (relative to internal zero)
  | Occupation number:      0.00000000
  | K-point:     188 at    0.666667    0.666667    0.000000 (in units of recip. lattice)

  ESTIMATED overall HOMO-LUMO gap:      4.64317538 eV between HOMO at k-point 188 and LUMO at k-point 188
  | This appears to be a direct band gap.
  The gap value is above 0.2 eV. Unless you are using a very sparse k-point grid,
  this system is most likely an insulator or a semiconductor.

  Self-consistency cycle converged.

  End self-consistency iteration #    14       :  max(cpu_time)    wall_clock(cpu1)
  | Time for this iteration                    :        0.494 s           0.493 s
  | Charge density update                      :        0.000 s           0.000 s
  | Density mixing                             :        0.066 s           0.065 s
  | Hartree multipole update                   :        0.001 s           0.001 s
  | Hartree multipole summation                :        0.268 s           0.268 s
  | Integration                                :        0.132 s           0.133 s
  | Solution of K.-S. eqns.                    :        0.024 s           0.024 s
  | Total energy evaluation                    :        0.001 s           0.001 s

  Partial memory accounting:
  | Current value for overall tracked memory usage:
  |   Minimum:        0.475 MB (on task 0)
  |   Maximum:        0.481 MB (on task 1)
  |   Average:        0.477 MB
  | Peak value for overall tracked memory usage:
  |   Minimum:        3.269 MB (on task 0 after allocating gradient_basis_wave)
  |   Maximum:        3.348 MB (on task 1 after allocating gradient_basis_wave)
  |   Average:        3.302 MB
  | Largest tracked array allocation so far:
  |   Minimum:        1.011 MB (hamiltonian_shell on task 0)
  |   Maximum:        1.050 MB (hamiltonian_shell on task 1)
  |   Average:        1.028 MB
  Note:  These values currently only include a subset of arrays which are explicitly tracked.
  The "true" memory usage will be greater.
------------------------------------------------------------

  Energy and forces in a compact form:
  | Total energy uncorrected      :         -0.216763832674673E+04 eV
  | Total energy corrected        :         -0.216763832674673E+04 eV  <-- do not rely on this value for anything but (periodic) metals
  | Electronic free energy        :         -0.216763832674673E+04 eV

  ------------------------------------ 
  Start decomposition of the XC Energy 
  ------------------------------------ 
  X and C from original XC functional choice 
  Hartree-Fock Energy :          0.000000000 Ha              0.000000000 eV
  X Energy            :        -10.575982166 Ha           -287.787117184 eV
  C Energy            :         -0.409842533 Ha            -11.152382737 eV
  Total XC Energy     :        -10.985824699 Ha           -298.939499921 eV
  ------------------------------------ 
  LDA X and C from self-consistent density 
  X Energy LDA        :         -9.592726942 Ha           -261.031381231 eV
  C Energy LDA        :         -0.800269608 Ha            -21.776444016 eV
  ------------------------------------ 
  End decomposition of the XC Energy 
  ------------------------------------ 

------------------------------------------------------------

  ------------------------------------------------------------
                   Starting Mulliken Analysis
  ------------------------------------------------------------

  Performing Mulliken charge analysis on all atoms.
  Full analysis (per state, per k-point, etc.) will NOT be written to separate file 'Mulliken.out'.
  This file can be requested by stating 'output mulliken' explicitly.
  Summary of the per-atom charge analysis:
  |
  |  atom       electrons          charge             l=0             l=1             l=2
  |     1        7.458591       -0.458591        3.432941        3.993431        0.032219
  |     2        4.541409        0.458591        2.708361        1.582944        0.250104
  |
  | Total       12.000000       -0.000000

  Calculating angular momentum projected density of states ...
  | Chemical potential is  -1.453767 eV.
  | writing   projected DOS (shifted by the chemical potential) for species N to file N_l_proj_dos_tetrahedron.dat.
  | writing   projected DOS (raw data) for species N to file N_l_proj_dos_tetrahedron_raw.dat.
  | writing   projected DOS (shifted by the chemical potential) for species B to file B_l_proj_dos_tetrahedron.dat.
  | writing   projected DOS (raw data) for species B to file B_l_proj_dos_tetrahedron_raw.dat.

  Mulliken analysis                                       :  max(cpu_time)    wall_clock(cpu1)
  | Time for Mulliken analysis                            :          0.108               0.128
  | Total time for Mulliken analysis                      :          0.108               0.128
------------------------------------------------------------
 Output mulliken decomposition of band k points in LAPACK

  -------------------------------------------------------------------
  Writing the requested band Mulliken decomposition output (LAPACK version):
  -------------------------------------------------------------------

  Integrating Hamiltonian matrix: batch-based integration.
  Time summed over all CPUs for integration: real work        0.483 s, elapsed        0.544 s

  Treating all   31 k-points in band plot segment #   1:

  Overlap matrix is not singular
  | Lowest and highest eigenvalues :  0.2044E-02,  0.6552E+01
  Finished singularity check of overlap matrix
  | Time :     0.000 s
  Starting LAPACK eigensolver
  Finished Cholesky decomposition
  | Time :     0.000 s
  Finished transformation to standard eigenproblem
  | Time :     0.000 s
  Finished solving standard eigenproblem
  | Time :     0.000 s
  Finished back-transformation of eigenvectors
  | Time :     0.000 s
  Performing scalar-relativistic Mulliken charge analysis on all atoms.
 n_atoms, n_states, n_spin,n_k_points           2          12           1          31
  Allocating        0.017 MB for mulliken_decomp

  Treating all   31 k-points in band plot segment #   2:

  Performing scalar-relativistic Mulliken charge analysis on all atoms.
 n_atoms, n_states, n_spin,n_k_points           2          12           1          31
  Allocating        0.017 MB for mulliken_decomp

  Treating all   31 k-points in band plot segment #   3:

  Performing scalar-relativistic Mulliken charge analysis on all atoms.
 n_atoms, n_states, n_spin,n_k_points           2          12           1          31
  Allocating        0.017 MB for mulliken_decomp

  Treating all   31 k-points in band plot segment #   4:

  Performing scalar-relativistic Mulliken charge analysis on all atoms.
 n_atoms, n_states, n_spin,n_k_points           2          12           1          31
  Allocating        0.017 MB for mulliken_decomp

  Treating all   31 k-points in band plot segment #   5:

  Performing scalar-relativistic Mulliken charge analysis on all atoms.
 n_atoms, n_states, n_spin,n_k_points           2          12           1          31
  Allocating        0.017 MB for mulliken_decomp

  Treating all   31 k-points in band plot segment #   6:

  Performing scalar-relativistic Mulliken charge analysis on all atoms.
 n_atoms, n_states, n_spin,n_k_points           2          12           1          31
  Allocating        0.017 MB for mulliken_decomp

  -------------------------------------------------------------------
  Writing the requested band structure output (LAPACK version):
  -------------------------------------------------------------------

  Integrating Hamiltonian matrix: batch-based integration.
  Time summed over all CPUs for integration: real work        0.474 s, elapsed        0.532 s

  Treating all   31 k-points in band plot segment #   1:


  "Band gap" along reciprocal space direction number:    1
  | Lowest unoccupied state:      -1.21333930 eV
  | Highest occupied state :      -6.94910571 eV
  | Energy difference      :       5.73576641 eV


  Treating all   31 k-points in band plot segment #   2:


  "Band gap" along reciprocal space direction number:    2
  | Lowest unoccupied state:      -1.40739335 eV
  | Highest occupied state :      -6.05056872 eV
  | Energy difference      :       4.64317538 eV


  Treating all   31 k-points in band plot segment #   3:


  "Band gap" along reciprocal space direction number:    3
  | Lowest unoccupied state:      -1.40739335 eV
  | Highest occupied state :      -6.05056872 eV
  | Energy difference      :       4.64317538 eV


  Treating all   31 k-points in band plot segment #   4:


  "Band gap" along reciprocal space direction number:    4
  | Lowest unoccupied state:      -1.21333930 eV
  | Highest occupied state :      -6.94910571 eV
  | Energy difference      :       5.73576641 eV


  Treating all   31 k-points in band plot segment #   5:


  "Band gap" along reciprocal space direction number:    5
  | Lowest unoccupied state:      -1.40739335 eV
  | Highest occupied state :      -6.05056872 eV
  | Energy difference      :       4.64317538 eV


  Treating all   31 k-points in band plot segment #   6:


  "Band gap" along reciprocal space direction number:    6
  | Lowest unoccupied state:      -1.40739335 eV
  | Highest occupied state :      -6.05056872 eV
  | Energy difference      :       4.64317538 eV

  "Band gap" of total set of bands:
  | Lowest unoccupied state:      -1.40739335 eV
  | Highest occupied state :      -6.05056872 eV
  | Energy difference      :       4.64317538 eV


  Band Structure                                          :  max(cpu_time) wall_clock(cpu1)
  | Total Time                                            :          0.181            0.256
------------------------------------------------------------

------------------------------------------------------------------------------
  Final output of selected total energy values:

  The following output summarizes some interesting total energy values
  at the end of a run (AFTER all relaxation, molecular dynamics, etc.).

  | Total energy of the DFT / Hartree-Fock s.c.f. calculation      :          -2167.638326747 eV
  | Final zero-broadening corrected energy (caution - metals only) :          -2167.638326747 eV
  | For reference only, the value of 1 Hartree used in FHI-aims is :             27.211384500 eV
  | For reference only, the overall average (free atom contribution
  | + realspace contribution) of the electrostatic potential after
  | s.c.f. convergence is                                          :             -0.431265954 eV

  Before relying on these values, please be sure to understand exactly which
  total energy value is referred to by a given number. Different objects may
  all carry the same name 'total energy'. Definitions:

  Total energy of the DFT / Hartree-Fock s.c.f. calculation:
  | Note that this energy does not include ANY quantities calculated after the
  | s.c.f. cycle, in particular not ANY RPA, MP2, etc. many-body perturbation terms.

  Final zero-broadening corrected energy:
  | For metallic systems only, a broadening of the occupation numbers at the Fermi
  | level can be extrapolated back to zero broadening by an electron-gas inspired
  | formula. For all systems that are not real metals, this value can be
  | meaningless and should be avoided.

------------------------------------------------------------------------------
  Methods described in the following list of references were used in this FHI-aims run.
  If you publish the results, please make sure to cite these reference if they apply.
  FHI-aims is an academic code, and for our developers (often, Ph.D. students
  and postdocs), scientific credit in the community is essential.
  Thank you for helping us!

  For any use of FHI-aims, please cite:

    Volker Blum, Ralf Gehrke, Felix Hanke, Paula Havu, Ville Havu,
    Xinguo Ren, Karsten Reuter, and Matthias Scheffler
    'Ab initio molecular simulations with numeric atom-centered orbitals'
    Computer Physics Communications 180, 2175-2196 (2009)
    http://dx.doi.org/10.1016/j.cpc.2009.06.022


  The provided symmetry information was generated with SPGlib:

    Atsushi Togo, Yusuke Seto, Dimitar Pashov
    SPGlib 1.7.3 obtained from http://spglib.sourceforge.net
    Copyright (C) 2008 Atsushi Togo


  The ELSI infrastructure was used in your run to solve the Kohn-Sham electronic structure.
  Please check out http://elsi-interchange.org to learn more.
  If scalability is important for your project, please acknowledge ELSI by citing:

    V. W-z. Yu, F. Corsetti, A. Garcia, W. P. Huhn, M. Jacquelin, W. Jia,
    B. Lange, L. Lin, J. Lu, W. Mi, A. Seifitokaldani, A. Vazquez-Mayagoitia,
    C. Yang, H. Yang, and V. Blum
    'ELSI: A unified software interface for Kohn-Sham electronic structure solvers'
    Computer Physics Communications 222, 267-285 (2018).
    http://dx.doi.org/10.1016/j.cpc.2017.09.007


  For the real-space grid partitioning and parallelization used in this calculation, please cite:

    Ville Havu, Volker Blum, Paula Havu, and Matthias Scheffler,
    'Efficient O(N) integration for all-electron electronic structure calculation'
    'using numerically tabulated basis functions'
    Journal of Computational Physics 228, 8367-8379 (2009).
    http://dx.doi.org/10.1016/j.jcp.2009.08.008

  Of course, there are many other important community references, e.g., those cited in the
  above references. Our list is limited to references that describe implementations in the
  FHI-aims code. The reason is purely practical (length of this list) - please credit others as well.

------------------------------------------------------------
          Leaving FHI-aims.
          Date     :  20210412, Time     :  141831.270

          Computational steps:
          | Number of self-consistency cycles          :           14
          | Number of SCF (re)initializations          :            1

          Detailed time accounting                     :  max(cpu_time)    wall_clock(cpu1)
          | Total time                                 :       11.816 s          11.837 s
          | Preparation time                           :        0.083 s           0.081 s
          | Boundary condition initalization           :        3.509 s           3.509 s
          | Grid partitioning                          :        0.018 s           0.018 s
          | Preloading free-atom quantities on grid    :        0.065 s           0.065 s
          | Free-atom superposition energy             :        0.011 s           0.011 s
          | Total time for integrations                :        1.463 s           1.464 s
          | Total time for solution of K.-S. equations :        0.341 s           0.341 s
          | Total time for density update              :        2.284 s           2.282 s
          | Total time for mixing & preconditioning    :        0.752 s           0.749 s
          | Total time for Hartree multipole update    :        0.015 s           0.017 s
          | Total time for Hartree multipole sum       :        2.334 s           2.332 s
          | Total time for total energy evaluation     :        0.013 s           0.009 s
          | Total time for band structures, DOS        :        0.276 s           0.256 s
          | Total time for Mulliken analysis           :        0.108 s           0.128 s

          Partial memory accounting:
          | Residual value for overall tracked memory usage across tasks:     0.076874 MB (should be 0.000000 MB)
          |
          | Largest tracked array allocation:
          |   Minimum:        1.011 MB (hamiltonian_shell on task 0)
          |   Maximum:        1.050 MB (hamiltonian_shell on task 1)
          |   Average:        1.028 MB
          |
          | Because the residual tracked memory usage was not zero, the peak value for overall
          | tracked memory usage was not output, as it is probably incorrect.  This is likely due
          | to a missing aims_deallocate statement in the source code, which should be otherwise
          | harmless.
          |
          Note:  These values currently only include a subset of arrays which are explicitly tracked.
          The "true" memory usage will be greater.

          Have a nice day.
------------------------------------------------------------
