------------------------------------------------------------
          Invoking FHI-aims ...

          When using FHI-aims, please cite the following reference:

            Volker Blum, Ralf Gehrke, Felix Hanke, Paula Havu,
            Ville Havu, Xinguo Ren, Karsten Reuter, and Matthias Scheffler,
            'Ab Initio Molecular Simulations with Numeric Atom-Centered Orbitals',
            Computer Physics Communications 180, 2175-2196 (2009)

          In addition, many other developments in FHI-aims are likely important for
          your particular application. A partial list of references is given at the end of
          this file. Thank you for giving credit to the authors of these developments.

          For any questions about FHI-aims, please visit our slack channel at

            https://fhi-aims.slack.com

          and our main development and support site at

            https://aims-git.rz-berlin.mpg.de .

          The latter site, in particular, has a wiki to collect information, as well
          as an issue tracker to log discussions, suggest improvements, and report issues
          or bugs. https://aims-git.rz-berlin.mpg.de is also the main development site
          of the project and all new and updated code versions can be obtained there.
          Please send an email to aims-coordinators@fhi-berlin.mpg.de and we will add
          you to these sites. They are for you and everyone is welcome there.

------------------------------------------------------------



  Date     :  20201111, Time     :  151207.506
  Time zero on CPU 1             :   0.468750000000000E-01  s.
  Internal wall clock time zero  :           374339527.506  s.

  FHI-aims created a unique identifier for this run for later identification
  aims_uuid : 160C2D2B-15B9-4AAE-A8A2-850AFBC88837

  Build configuration of the current instance of FHI-aims
  -------------------------------------------------------
  FHI-aims version      : 200819
  Commit number         : 009f8e893
  CMake host system     : Linux-4.4.0-17763-Microsoft
  CMake version         : 3.17.3
  Fortran compiler      : /home/rkempt/anaconda3/envs/develop/bin/mpifort (GNU) version 7.3.0
  Fortran compiler flags: -O3 -march=native -ffree-line-length-none
  C compiler            : /usr/bin/gcc (GNU) version 7.5.0
  C compiler flags      : -O3 -march=native -DNDEBUG -funroll-loops
  Using MPI
  Using LibXC
  Using SPGlib
  Using i-PI
  Using RLSY
  Linking against: /home/rkempt/anaconda3/envs/develop/lib/libmkl_intel_lp64.so
                   /home/rkempt/anaconda3/envs/develop/lib/libmkl_sequential.so
                   /home/rkempt/anaconda3/envs/develop/lib/libmkl_core.so

  Using        6 parallel tasks.
  Task        0 on host lpz0174 reporting.
  Task        1 on host lpz0174 reporting.
  Task        2 on host lpz0174 reporting.
  Task        3 on host lpz0174 reporting.
  Task        4 on host lpz0174 reporting.
  Task        5 on host lpz0174 reporting.

  Performing system and environment tests:
  *** Environment variable OMP_NUM_THREADS is not set
  *** For performance reasons you might want to set it to 1
  | Checking for scalapack...
  | No scalapack compiled in.

  Obtaining array dimensions for all initial allocations:
  
  -----------------------------------------------------------------------
  Parsing control.in (first pass over file, find array dimensions only).
  The contents of control.in will be repeated verbatim below
  unless switched off by setting 'verbatim_writeout .false.' .
  in the first line of control.in .
  -----------------------------------------------------------------------
  
  #===============================================================================
  # FHI-aims file: ./control.in
  # Created using the Atomic Simulation Environment (ASE)
  # Wed Nov 11 15:08:57 2020
  #===============================================================================
  xc                                 pbe
  check_stacksize .False.
  include_spin_orbit
  # Common choices of dispersion methods:
  # 	 vdw_correction_hirshfeld
  # 	 many_body_dispersion
  # 	 many_body_dispersion_nl 	 beta=0.81
  spin                               none
  k_grid                             6 6 1
  relativistic                       atomic_zora scalar
  ### SCF settings
  adjust_scf 	 always 	 3
  # frozen_core_scf 	 .true.
  # charge_mix_param  0.05
  # occupation_type 	 gaussian 	 0.01
  # sc_accuracy_eev   1E-3 	 	 # sum of eigenvalues convergence
  # sc_accuracy_etot  1E-6 	 	 # total energy convergence
  sc_accuracy_rho   1E-3 	 	 # electron density convergence
  # elsi_restart 	 read_and_write 	 1000
  ### band structure section
  ## Brillouin Zone section Nr. 1
  output band 0.000000 0.000000 0.000000 	 0.500000 0.000000 0.000000 	 31 	 G M
  output band 0.500000 0.000000 0.000000 	 0.333333 0.333333 0.000000 	 31 	 M K
  output band 0.333333 0.333333 0.000000 	 0.000000 0.000000 0.000000 	 31 	 K G
  ### band structure section
  ## Brillouin Zone section Nr. 1
  output band_mulliken 0.000000 0.000000 0.000000 	 0.500000 0.000000 0.000000 	 31 	 G M
  output band_mulliken 0.500000 0.000000 0.000000 	 0.333333 0.333333 0.000000 	 31 	 M K
  output band_mulliken 0.333333 0.333333 0.000000 	 0.000000 0.000000 0.000000 	 31 	 K G
  ### DOS section
  output atom_proj_dos  -10 0 300 0.05       # Estart Eend n_points broadening
  
  use_dipole_correction
  #===============================================================================
  
  ################################################################################
  #
  #  FHI-aims code project
  #  VB, Fritz-Haber Institut, 2009
  #
  #  Suggested "light" defaults for N atom (to be pasted into control.in file)
  #  Be sure to double-check any results obtained with these settings for post-processing,
  #  e.g., with the "tight" defaults and larger basis sets.
  #
  ################################################################################
    species        N
  #     global species definitions
      nucleus             7
      mass                14.0067
  #
      l_hartree           4
  #
      cut_pot             3.5  1.5  1.0
      basis_dep_cutoff    1e-4
  #
      radial_base         35 5.0
      radial_multiplier   1
      angular_grids       specified
        division   0.2599   50
        division   0.4601  110
        division   0.5885  194
        division   0.6503  302
  #      division   0.6939  434
  #      division   0.7396  590
  #      division   0.7632  770
  #      division   0.8122  974
  #      division   1.1604 1202
  #      outer_grid  974
        outer_grid  302
  ################################################################################
  #
  #  Definition of "minimal" basis
  #
  ################################################################################
  #     valence basis states
      valence      2  s   2.
      valence      2  p   3.
  #     ion occupancy
      ion_occ      2  s   1.
      ion_occ      2  p   2.
  ################################################################################
  #
  #  Suggested additional basis functions. For production calculations,
  #  uncomment them one after another (the most important basis functions are
  #  listed first).
  #
  #  Constructed for dimers: 1.0 A, 1.1 A, 1.5 A, 2.0 A, 3.0 A
  #
  ################################################################################
  #  "First tier" - improvements: -1193.42 meV to -220.60 meV
       hydro 2 p 1.8
       hydro 3 d 6.8
       hydro 3 s 5.8
  #  "Second tier" - improvements: -80.21 meV to -6.86 meV
  #     hydro 4 f 10.8
  #     hydro 3 p 5.8
  #     hydro 1 s 0.8
  #     hydro 5 g 16
  #     hydro 3 d 4.9
  #  "Third tier" - improvements: -4.29 meV to -0.53 meV
  #     hydro 3 s 16
  #     ionic 2 p auto
  #     hydro 3 d 6.6
  #     hydro 4 f 11.6
  #  "Fourth tier" - improvements: -0.75 meV to -0.25 meV
  #     hydro 2 p 4.5
  #     hydro 2 s 2.4
  #     hydro 5 g 14.4
  #     hydro 4 d 14.4
  #     hydro 4 f 16.8
  # Further basis functions - -0.21 meV and below
  #     hydro 3 p 14.8
  #     hydro 3 s 4.4
  #     hydro 3 d 19.6
  #     hydro 5 g 12.8
  ################################################################################
  #
  #  FHI-aims code project
  #  VB, Fritz-Haber Institut, 2009
  #
  #  Suggested "light" defaults for B atom (to be pasted into control.in file)
  #  Be sure to double-check any results obtained with these settings for post-processing,
  #  e.g., with the "tight" defaults and larger basis sets.
  #
  ################################################################################
    species        B
  #     global species definitions
      nucleus             5
      mass                10.811
  #
      l_hartree           4
  #
      cut_pot             3.5  1.5  1.0
      basis_dep_cutoff    1e-4
  #
      radial_base         32 5.0
      radial_multiplier   1
      angular_grids       specified
        division   0.3742  110
        division   0.5197  194
        division   0.5753  302
  #      division   0.7664  434
  #      division   0.8392  770
  #      division   1.6522  974
  #      outer_grid   974
        outer_grid   302
  ################################################################################
  #
  #  Definition of "minimal" basis
  #
  ################################################################################
  #     valence basis states
      valence      2  s   2.
      valence      2  p   1.
  #     ion occupancy
      ion_occ      2  s   1.
  ################################################################################
  #
  #  Suggested additional basis functions. For production calculations,
  #  uncomment them one after another (the most important basis functions are
  #  listed first).
  #
  #  Constructed for dimers: 1.25 A, 1.625 A, 2.5 A, 3.5 A
  #
  ################################################################################
  #  "First tier" - improvements: -710.52 meV to -92.39 meV
       hydro 2 p 1.4
       hydro 3 d 4.8
       hydro 2 s 4
  #  "Second tier" - improvements: -33.88 meV to -2.20 meV
  #     hydro 4 f 7.8
  #     hydro 3 p 4.2
  #     hydro 3 s 3.3
  #     hydro 5 g 11.2
  #     hydro 3 d 5.4
  #  "Third tier" - improvements: -1.28 meV to -0.36 meV
  #     hydro 2 p 4.7
  #     hydro 2 s 8.4
  #     hydro 4 d 5.8
  #  "Fourth tier" - improvements: -0.25 meV to -0.12 meV
  #     hydro 3 p 2.2
  #     hydro 3 s 3
  #     hydro 4 f 9.8
  #     hydro 5 g 12.8
  #     hydro 4 d 10
  #  Further functions
  #     hydro 4 f 14
  #     hydro 3 p 12.4
  
  -----------------------------------------------------------------------
  Completed first pass over input file control.in .
  -----------------------------------------------------------------------
  
  
  -----------------------------------------------------------------------
  Parsing geometry.in (first pass over file, find array dimensions only).
  The contents of geometry.in will be repeated verbatim below
  unless switched off by setting 'verbatim_writeout .false.' .
  in the first line of geometry.in .
  -----------------------------------------------------------------------
  
  #=======================================================
  # FHI-aims file: ./geometry.in
  # Created using the Atomic Simulation Environment (ASE)
  # Wed Nov 11 15:08:57 2020
  #=======================================================
  lattice_vector 2.5124282299999998 0.0000000000000000 0.0000000000000000
  lattice_vector -1.2562141099999999 2.1758266700000002 0.0000000000000000
  lattice_vector 0.0000000000000000 0.0000000000000000 100.0000000000000000
  atom_frac 0.3333333408832657 0.0000000000000000 0.5000000000000001 N
  atom_frac 0.0000000000000000 0.3333333394612724 0.5000000000000001 B
  
  -----------------------------------------------------------------------
  Completed first pass over input file geometry.in .
  -----------------------------------------------------------------------
  

  Basic array size parameters:
  | Number of species                 :        2
  | Number of atoms                   :        2
  | Number of lattice vectors         :        3
  | Max. basis fn. angular momentum   :        2
  | Max. atomic/ionic basis occupied n:        2
  | Max. number of basis fn. types    :        2
  | Max. radial fns per species/type  :        3
  | Max. logarithmic grid size        :     1290
  | Max. radial integration grid size :       35
  | Max. angular integration grid size:      302
  | Max. angular grid division number :        8
  | Radial grid for Hartree potential :     1290
  | Number of spin channels           :        1

------------------------------------------------------------
          Reading file control.in.
------------------------------------------------------------
  XC: Using PBE gradient-corrected functionals.
  Calculating non-self-consistent second-variational spin-orbit coupling after scf-cycle
  Spin treatment: No spin polarisation.
  Found k-point grid:         6         6         1
  Scalar relativistic treatment of kinetic energy: on-site free-atom approximation to ZORA.
  S.C.F. convergence parameters will be adjusted in iteration number     3 of each new s.c.f. cycle.
  Convergence accuracy of self-consistent charge density:  0.1000E-02

  Plot band    1
  | begin  0.000000  0.000000  0.000000
  | end    0.500000  0.000000  0.000000
  | number of points:   31

  Plot band    2
  | begin  0.500000  0.000000  0.000000
  | end    0.333333  0.333333  0.000000
  | number of points:   31

  Plot band    3
  | begin  0.333333  0.333333  0.000000
  | end    0.000000  0.000000  0.000000
  | number of points:   31
 Mulliken analysis of all k points in band will be performed

  Plot band    4
  | begin  0.000000  0.000000  0.000000
  | end    0.500000  0.000000  0.000000
  | number of points:   31
 Mulliken analysis of all k points in band will be performed

  Plot band    5
  | begin  0.500000  0.000000  0.000000
  | end    0.333333  0.333333  0.000000
  | number of points:   31
 Mulliken analysis of all k points in band will be performed

  Plot band    6
  | begin  0.333333  0.333333  0.000000
  | end    0.000000  0.000000  0.000000
  | number of points:   31
  Calculating atom-projected density of states with
  | energy interval :-10.000000  0.000000
  | points & broadening :   300  0.050000
  Using dipole correction.

  Reading configuration options for species N                   .
  | Found nuclear charge :   7.0000
  | Found atomic mass :    14.006700000000000      amu
  | Found l_max for Hartree potential  :   4
  | Found cutoff potl. onset [A], width [A], scale factor :    3.50000    1.50000    1.00000
  | Threshold for basis-dependent cutoff potential is   0.100000E-03
  | Found data for basic radial integration grid :    35 points, outermost radius =    5.000 A
  | Found multiplier for basic radial grid :   1
  | Found angular grid specification: user-specified.
  | Specified grid contains     5 separate shells.
  | Check grid settings after all constraints further below.
  | Found free-atom valence shell :  2 s   2.000
  | Found free-atom valence shell :  2 p   3.000
  | No ionic wave fns used. Skipping ion_occ.
  | No ionic wave fns used. Skipping ion_occ.
  | Found hydrogenic basis function :  2 p   1.800
  | Found hydrogenic basis function :  3 d   6.800
  | Found hydrogenic basis function :  3 s   5.800
  Species N                   : Missing cutoff potential type.
  Defaulting to exp(1/x)/(1-x)^2 type cutoff potential.
  Species N : No 'logarithmic' tag. Using default grid for free atom:
  | Default logarithmic grid data [bohr] : 0.1000E-03 0.1000E+03 0.1012E+01
  Species N : On-site basis accuracy parameter (for Gram-Schmidt orthonormalisation) not specified.
  Using default value basis_acc =  0.1000000E-03.
  Species N                   : Using default innermost maximum threshold i_radial=  2 for radial functions.
  Species N                   : Default cutoff onset for free atom density etc. : 0.35000000E+01 AA.
  Species N                   : Basic radial grid will be enhanced according to radial_multiplier =   1, to contain    35 grid points.

  Reading configuration options for species B                   .
  | Found nuclear charge :   5.0000
  | Found atomic mass :    10.811000000000000      amu
  | Found l_max for Hartree potential  :   4
  | Found cutoff potl. onset [A], width [A], scale factor :    3.50000    1.50000    1.00000
  | Threshold for basis-dependent cutoff potential is   0.100000E-03
  | Found data for basic radial integration grid :    32 points, outermost radius =    5.000 A
  | Found multiplier for basic radial grid :   1
  | Found angular grid specification: user-specified.
  | Specified grid contains     4 separate shells.
  | Check grid settings after all constraints further below.
  | Found free-atom valence shell :  2 s   2.000
  | Found free-atom valence shell :  2 p   1.000
  | No ionic wave fns used. Skipping ion_occ.
  | Found hydrogenic basis function :  2 p   1.400
  | Found hydrogenic basis function :  3 d   4.800
  | Found hydrogenic basis function :  2 s   4.000
  Species B                   : Missing cutoff potential type.
  Defaulting to exp(1/x)/(1-x)^2 type cutoff potential.
  Species B : No 'logarithmic' tag. Using default grid for free atom:
  | Default logarithmic grid data [bohr] : 0.1000E-03 0.1000E+03 0.1012E+01
  Species B : On-site basis accuracy parameter (for Gram-Schmidt orthonormalisation) not specified.
  Using default value basis_acc =  0.1000000E-03.
  Species B                   : Using default innermost maximum threshold i_radial=  2 for radial functions.
  Species B                   : Default cutoff onset for free atom density etc. : 0.35000000E+01 AA.
  Species B                   : Basic radial grid will be enhanced according to radial_multiplier =   1, to contain    32 grid points.

  Finished reading input file 'control.in'.

------------------------------------------------------------


------------------------------------------------------------
          Reading geometry description geometry.in.
------------------------------------------------------------

  Consistency checks are next.

  MPI_IN_PLACE appears to work with this MPI implementation.
  | Keeping use_mpi_in_place .true. (see manual).
  Target number of points in a grid batch is not set. Defaulting to  100
  Method for grid partitioning is not set. Defaulting to parallel hash+maxmin partitioning.
  Batch size limit is not set. Defaulting to    200
  By default, will store active basis functions for each batch.
  If in need of memory, prune_basis_once .false. can be used to disable this option.
  communication_type for Hartree potential was not specified.
  Defaulting to calc_hartree .
  Defaulting to Pulay charge density mixer.
  Pulay mixer: Number of relevant iterations not set.
  Defaulting to    8 iterations.
  Pulay mixer: Number of initial linear mixing iterations not set.
  Defaulting to    0 iterations.
  Work space size for distributed Hartree potential not set.
  Defaulting to   0.200000E+03 MB.
  Mixing parameter for charge density mixing has not been set.
  Using default: charge_mix_param =     0.0500.
  The mixing parameter will be adjusted in iteration number     3 of each s.c.f. cycle (i.e., each geometry step).
  Algorithm-dependent basis array size parameters:
  | n_max_pulay                         :        8
  Maximum number of self-consistency iterations not provided.
  Presetting  1000 iterations.
  Presetting      1001 iterations before the initial mixing cycle
  is restarted anyway using the sc_init_iter criterion / keyword.
  Presetting a factor      1.000 between actual scf density residual
  and density convergence criterion sc_accuracy_rho below which sc_init_iter
  takes no effect.
  Calculation of forces was not defined in control.in. No forces will be calculated.
  Geometry relaxation not requested: no relaxation will be performed.
  No accuracy limit for integral partition fn. given. Defaulting to  0.1000E-14.
  No threshold value for u(r) in integrations given. Defaulting to  0.1000E-05.
  No occupation type (smearing scheme) given. Defaulting to Gaussian broadening, width =  0.1000E-01 eV.
  The width will be adjusted in iteration number     3 of each s.c.f. cycle (i.e., each geometry step).
  S.C.F. convergence parameters will be adjusted in iteration number     3 of the first full s.c.f. cycle only.
  No accuracy for occupation numbers given. Defaulting to  0.1000E-12.
  No threshold value for occupation numbers given. Defaulting to  0.0000E+00.
  No accuracy for fermi level given. Defaulting to  0.1000E-19.
  Maximum # of iterations to find E_F not set. Defaulting to  200.
  Preferred method for the eigenvalue solver ('KS_method') not specified in 'control.in'.
  Defaulting to serial version, LAPACK (via ELSI), since more k-points than CPUs available.
  Will not use alltoall communication since running on < 1024 CPUs.
  Threshold for basis singularities not set.
  Default threshold for basis singularities:  0.1000E-04
  partition_type (choice of integration weights) for integrals was not specified.
  | Using a version of the partition function of Stratmann and coworkers ('stratmann_sparse').
  | At each grid point, the set of atoms used to build the partition table is smoothly restricted to
  | only those atoms whose free-atom density would be non-zero at that grid point.
  Partitioning for Hartree potential was not defined. Using partition_type for integrals.
  | Adjusted default value of keyword multip_moments_threshold to:       0.10000000E-11
  | This value may affect high angular momentum components of the Hartree potential in periodic systems.
  Angular momentum expansion for Kerker preconditioner not set explicitly.
  | Using default value of   0
  No explicit requirement for turning off preconditioner.
  | By default, it will be turned off when the charge convergence reaches
  | sc_accuracy_rho  =   0.100000E-02
  No special mixing parameter while Kerker preconditioner is on.
  Using default: charge_mix_param =     0.0500.
  No q(lm)/r^(l+1) cutoff set for long-range Hartree potential.
  | Using default value of  0.100000E-09 .
  | Verify using the multipole_threshold keyword.
  Defaulting to new monopole extrapolation.
  Density update method: automatic selection selected.
  Using density matrix based charge density update.
  Using density matrix based charge density update.
  Using packed matrix style: index .
  Defaulting to use time-reversal symmetry for k-point grid.
  Charge integration errors on the 3D integration grid will be compensated
  by explicit normalization and distribution of residual charges.
  Use the "compensate_multipole_errors" flag to change this behaviour.
  Input structure read successfully.
  The structure contains        2 atoms,  and a total of         12.000 electrons.

  Input geometry:
  | Unit cell:
  |        2.51242823        0.00000000        0.00000000
  |       -1.25621411        2.17582667        0.00000000
  |        0.00000000        0.00000000      100.00000000
  | Atomic structure:
  |       Atom                x [A]            y [A]            z [A]
  |    1: Species N             0.83747610        0.00000000       50.00000000
  |    2: Species B            -0.41873804        0.72527557       50.00000000

  Lattice parameters for 3D lattice (in Angstroms) :     2.512428    2.512428  100.000000
  Angle(s) between unit vectors (in degrees)       :    90.000000   90.000000  120.000000

  | The smallest distance between any two atoms is         1.45055110 AA.
  | The first atom of this pair is atom number                      2 .
  | The second atom of this pair is atom number                     1 .
  | Wigner-Seitz cell of the first atom image           1     0     0 .
  | (The Wigner-Seitz cell of the second atom is 0 0 0  by definition.)

  Symmetry information by spglib:
  | Precision set to  0.1E-04
  | Number of Operations  : 12
  | Space group           : 187
  | International         : P-6m2
  | Schoenflies           : D3h^1

  Quantities derived from the lattice vectors:
  | Reciprocal lattice vector 1:  2.500842  1.443862  0.000000
  | Reciprocal lattice vector 2: -0.000000  2.887723  0.000000
  | Reciprocal lattice vector 3:  0.000000  0.000000  0.062832
  | Unit cell volume                               :   0.546661E+03  A^3

  Range separation radius for Ewald summation (hartree_convergence_parameter):      5.00000000 bohr.

  Fractional coordinates:
                         L1                L2                L3
       atom_frac         0.33333334       -0.00000000        0.50000000  N
       atom_frac         0.00000000        0.33333334        0.50000000  B

  Number of empty states per atom not set in control.in - providing a guess from actual geometry.
  | Total number of empty states used during s.c.f. cycle:        6
  If you use a very high smearing, use empty_states (per atom!) in control.in to increase this value.

  Structure-dependent array size parameters: 
  | Maximum number of distinct radial functions  :       12
  | Maximum number of basis functions            :       28
  | Number of Kohn-Sham states (occupied + empty):       12
------------------------------------------------------------
 Error: The dipole correction needs vacuum z-level to be defined
 Vacuum level will be determined automatically.
 Determine position of vacuum level automatically
 **WARNING** : This feature is experimental and still requires some testing
 **PLEASE ** : If you see it fail, please report.
 Vacuum level determined:
 set_vacuum_level    1.5040120899811881E-014

------------------------------------------------------------
          Preparing all fixed parts of the calculation.
------------------------------------------------------------
  Determining machine precision:
     2.2250738585072014E-308
  Setting up grids for atomic and cluster calculations.

  Creating wave function, potential, and density for free atoms.

  Species: N

  List of occupied orbitals and eigenvalues:
    n    l              occ      energy [Ha]    energy [eV]
    1    0           2.0000       -14.143973      -384.8771
    2    0           2.0000        -0.682008       -18.5584
    2    1           3.0000        -0.259605        -7.0642


  Species: B

  List of occupied orbitals and eigenvalues:
    n    l              occ      energy [Ha]    energy [eV]
    1    0           2.0000        -6.631096      -180.4413
    2    0           2.0000        -0.342554        -9.3214
    2    1           1.0000        -0.127121        -3.4592


  Adding cutoff potential to free-atom effective potential.
  Creating fixed part of basis set: Ionic, confined, hydrogenic.

  N                    hydrogenic:

  List of hydrogenic basis orbitals: 
    n    l      effective z      eigenvalue [eV]  inner max. [A]     outer max. [A]     outer radius [A]   
    2    1         1.800000       -10.9749           1.177451           1.177451           4.573712
    3    2         6.800000       -69.9026           0.704619           0.704619           3.538137
    3    0         5.800000       -50.8545           0.067388           1.191934           4.250239


  B                    hydrogenic:

  List of hydrogenic basis orbitals: 
    n    l      effective z      eigenvalue [eV]  inner max. [A]     outer max. [A]     outer radius [A]   
    2    1         1.400000        -6.4613           1.476684           1.476684           4.603067
    3    2         4.800000       -34.8298           0.986467           0.986467           4.491886
    2    0         4.000000       -54.4224           0.101523           0.692014           3.560846

  Creating atomic-like basis functions for current effective potential.

  Species N                   :

  List of atomic basis orbitals and eigenvalues:
    n    l      energy [Ha]    energy [eV]    outer radius [A]
    1    0       -14.143973      -384.8771       1.637919
    2    0        -0.682008       -18.5584       4.463241
    2    1        -0.259605        -7.0642       4.518138


  Species B                   :

  List of atomic basis orbitals and eigenvalues:
    n    l      energy [Ha]    energy [eV]    outer radius [A]
    1    0        -6.631096      -180.4413       2.349843
    2    0        -0.342554        -9.3214       4.547137
    2    1        -0.127121        -3.4592       4.603067

  Assembling full basis from fixed parts.
  | Species N :   atomic orbital   1 s accepted.
  | Species N :    hydro orbital   3 s accepted.
  | Species N :   atomic orbital   2 s accepted.
  | Species N :   atomic orbital   2 p accepted.
  | Species N :    hydro orbital   2 p accepted.
  | Species N :    hydro orbital   3 d accepted.
  | Species B :   atomic orbital   1 s accepted.
  | Species B :    hydro orbital   2 s accepted.
  | Species B :   atomic orbital   2 s accepted.
  | Species B :   atomic orbital   2 p accepted.
  | Species B :    hydro orbital   2 p accepted.
  | Species B :    hydro orbital   3 d accepted.

  Basis size parameters after reduction:
  | Total number of radial functions:       12
  | Total number of basis functions :       28

  Per-task memory consumption for arrays in subroutine allocate_ext:
  |           3.964264MB.
  Testing on-site integration grid accuracy.
  |  Species  Function  <phi|h_atom|phi> (log., in eV)  <phi|h_atom|phi> (rad., in eV)
           1        1               -384.8770852097               -384.8770238657
           1        2                 12.5754985572                 12.5755902269
           1        3                -15.7673946340                -15.7673131149
           1        4                 -7.0647024644                 -7.0651952861
           1        5                  8.8117910312                  8.7928686445
           1        6                 35.9641313274                 35.9643080893
           2        7               -180.4412899743               -180.4412668821
           2        8                 -7.0508962665                 -7.0531484353
           2        9                 12.1631637762                 12.1695200736
           2       10                 -3.4652986835                 -3.4686150231
           2       11                  7.2109830278                  7.1772455316 ***
           2       12                 17.2152472085                 17.2144468921
 * Note: Onsite integrals marked "***" above are less accurate than
 * onsite_accuracy_threshold =    0.03000 eV. Usually, this is harmless.
 * When in doubt, tighten the "radial" and/or "radial_multiplier" flags to check.

  Preparing densities etc. for the partition functions (integrals / Hartree potential).

  Preparations completed.
  max(cpu_time)          :      0.125 s.
  Wall clock time (cpu1) :      0.121 s.
------------------------------------------------------------

------------------------------------------------------------
          Begin self-consistency loop: Initialization.

          Date     :  20201111, Time     :  151207.638
------------------------------------------------------------

  Initializing index lists of integration centers etc. from given atomic structure:
  Mapping all atomic coordinates to central unit cell.

  Initializing the k-points
  Using symmetry for reducing the k-points
  | k-points reduced from:       36 to       20
  | Number of k-points                             :        20
  The eigenvectors in the calculations are COMPLEX.
  | K-points in task   0:         3
  | K-points in task   1:         4
  | K-points in task   2:         4
  | K-points in task   3:         3
  | K-points in task   4:         3
  | K-points in task   5:         3
  | Number of basis functions in the Hamiltonian integrals :      1128
  | Number of basis functions in a single unit cell        :        28
  | Number of centers in hartree potential         :       348
  | Number of centers in hartree multipole         :       142
  | Number of centers in electron density summation:       118
  | Number of centers in basis integrals           :       168
  | Number of centers in integrals                 :       100
  | Number of centers in hamiltonian               :       118
  | Consuming         28 KiB for k_phase.
  | Number of super-cells (origin) [n_cells]                     :        1083
  | Number of super-cells (after PM_index) [n_cells]             :          91
  | Number of super-cells in hamiltonian [n_cells_in_hamiltonian]:          64
  | Size of matrix packed + index [n_hamiltonian_matrix_size] :       17695
  | Estimated reciprocal-space cutoff momentum G_max:         1.84432723 bohr^-1 .
  | Reciprocal lattice points for long-range Hartree potential:     488
  Partitioning the integration grid into batches with parallel hashing+maxmin method.
  | Number of batches:      178
  | Maximal batch size:     112
  | Minimal batch size:      53
  | Average batch size:      73.427
  | Standard deviation of batch sizes:      21.134

  Integration load balanced across     6 MPI tasks.
  Work distribution over tasks is as follows:
  Task     0 has       2195 integration points.
  Task     1 has       2145 integration points.
  Task     2 has       2172 integration points.
  Task     3 has       2144 integration points.
  Task     4 has       2188 integration points.
  Task     5 has       2226 integration points.
  Initializing partition tables, free-atom densities, potentials, etc. across the integration grid (initialize_grid_storage).
  | initialize_grid_storage: Actual outermost partition radius vs. multipole_radius_free
  | (-- VB: in principle, multipole_radius_free should be larger, hence this output)
  | Species        1: Confinement radius =              4.999999999999999 AA, multipole_radius_free =              5.043624274424571 AA.
  | Species        1: outer_partition_radius set to              5.043624274424571 AA .
  | Species        2: Confinement radius =              4.999999999999999 AA, multipole_radius_free =              5.014318961829659 AA.
  | Species        2: outer_partition_radius set to              5.014318961829659 AA .
  | The sparse table of interatomic distances needs        122.16 kbyte instead of       225.79 kbyte of memory.
  | Net number of integration points:    13070
  | of which are non-zero points    :    11183
  | Numerical average free-atom electrostatic potential    :     -0.44437690 eV
  Renormalizing the initial density to the exact electron count on the 3D integration grid.
  | Initial density: Formal number of electrons (from input files) :      12.0000000000
  | Integrated number of electrons on 3D grid     :      12.0001051265
  | Charge integration error                      :       0.0001051265
  | Normalization factor for density and gradient :       0.9999912395
  Renormalizing the free-atom superposition density to the exact electron count on the 3D integration grid.
  | Formal number of electrons (from input files) :      12.0000000000
  | Integrated number of electrons on 3D grid     :      12.0001051265
  | Charge integration error                      :       0.0001051265
  | Normalization factor for density and gradient :       0.9999912395
  Obtaining max. number of non-zero basis functions in each batch (get_n_compute_maxes).
  | Maximal number of non-zero basis functions:      361 in task     0
  | Maximal number of non-zero basis functions:      366 in task     1
  | Maximal number of non-zero basis functions:      372 in task     2
  | Maximal number of non-zero basis functions:      373 in task     3
  | Maximal number of non-zero basis functions:      350 in task     4
  | Maximal number of non-zero basis functions:      363 in task     5
  Allocating        0.015 MB for KS_eigenvector_complex
  Integrating Hamiltonian matrix: batch-based integration.
  Time summed over all CPUs for integration: real work        0.285 s, elapsed        0.292 s
  Integrating overlap matrix.
  Time summed over all CPUs for integration: real work        0.148 s, elapsed        0.152 s
  Decreasing sparse matrix size:
  | Tolerance:  0.1000E-12
  Hamiltonian matrix
  | Array has    10006 nonzero elements out of    17695 elements
  | Sparsity factor is 0.435
  Overlap matrix
  | Array has     9266 nonzero elements out of    17695 elements
  | Sparsity factor is 0.476
  New size of hamiltonian matrix:       10086

  Updating Kohn-Sham eigenvalues and eigenvectors using ELSI and the (modified) LAPACK eigensolver.
  Singularity check in k-point 6, task 0 (analysis for other k-points/tasks may follow below):
  Overlap matrix is not singular
  | Lowest and highest eigenvalues :  0.9380E-03,  0.4422E+01
  Finished singularity check of overlap matrix
  | Time :     0.001 s
  Starting LAPACK eigensolver
  Finished Cholesky decomposition
  | Time :     0.000 s
  Finished transformation to standard eigenproblem
  | Time :     0.000 s
  Finished solving standard eigenproblem
  | Time :     0.000 s
  Finished back-transformation of eigenvectors
  | Time :     0.000 s

  Obtaining occupation numbers and chemical potential using ELSI.
  | Chemical potential (Fermi level):    -7.22785236 eV
  Writing Kohn-Sham eigenvalues.
  K-point:       1 at    0.000000    0.000000    0.000000 (in units of recip. lattice)

  State    Occupation    Eigenvalue [Ha]    Eigenvalue [eV]
      1       2.00000         -14.286565         -388.75721
      2       2.00000          -6.703551         -182.41290
      3       2.00000          -1.056723          -28.75490
      4       2.00000          -0.558365          -15.19388
      5       2.00000          -0.486560          -13.23996
      6       2.00000          -0.486559          -13.23994
      7       0.00000          -0.045994           -1.25155
      8       0.00000          -0.004394           -0.11956
      9       0.00000           0.035553            0.96746
     10       0.00000           0.035596            0.96861
     11       0.00000           0.193642            5.26927
     12       0.00000           0.328784            8.94665

  What follows are estimated values for band gap, HOMO, LUMO, etc.
  | They are estimated on a discrete k-point grid and not necessarily exact.
  | For converged numbers, create a DOS and/or band structure plot on a denser k-grid.

  Highest occupied state (VBM) at    -11.02001871 eV (relative to internal zero)
  | Occupation number:      2.00000000
  | K-point:      11 at    0.333333    0.333333    0.000000 (in units of recip. lattice)

  Lowest unoccupied state (CBM) at    -4.51339041 eV (relative to internal zero)
  | Occupation number:      0.00000000
  | K-point:      11 at    0.333333    0.333333    0.000000 (in units of recip. lattice)

  ESTIMATED overall HOMO-LUMO gap:      6.50662830 eV between HOMO at k-point 11 and LUMO at k-point 11
  | This appears to be a direct band gap.
  The gap value is above 0.2 eV. Unless you are using a very sparse k-point grid,
  this system is most likely an insulator or a semiconductor.
  Calculating total energy contributions from superposition of free atom densities.

  Total energy components:
  | Sum of eigenvalues            :         -47.34968840 Ha       -1288.45057700 eV
  | XC energy correction          :         -10.85379373 Ha        -295.34675445 eV
  | XC potential correction       :          13.94446831 Ha         379.44828888 eV
  | Free-atom electrostatic energy:         -35.52152100 Ha        -966.58976604 eV
  | Hartree energy correction     :          -0.00000000 Ha          -0.00000000 eV
  | Entropy correction            :          -0.00000000 Ha          -0.00000000 eV
  | ---------------------------
  | Total energy                  :         -79.78053482 Ha       -2170.93880862 eV
  | Total energy, T -> 0          :         -79.78053482 Ha       -2170.93880862 eV  <-- do not rely on this value for anything but (periodic) metals
  | Electronic free energy        :         -79.78053482 Ha       -2170.93880862 eV

  Derived energy quantities:
  | Kinetic energy                :          79.35522368 Ha        2159.36550377 eV
  | Electrostatic energy          :        -148.28196478 Ha       -4034.95755794 eV
  | Energy correction for multipole
  | error in Hartree potential    :           0.00000000 Ha           0.00000000 eV
  | Sum of eigenvalues per atom                           :        -644.22528850 eV
  | Total energy (T->0) per atom                          :       -1085.46940431 eV  <-- do not rely on this value for anything but (periodic) metals
  | Electronic free energy per atom                       :       -1085.46940431 eV
  Initialize hartree_potential_storage
  Max. number of atoms included in rho_multipole:            2

  End scf initialization - timings             :  max(cpu_time)    wall_clock(cpu1)
  | Time for scf. initialization               :        0.469 s           0.461 s
  | Boundary condition initialization          :        0.344 s           0.324 s
  | Integration                                :        0.062 s           0.076 s
  | Solution of K.-S. eqns.                    :        0.000 s           0.002 s
  | Grid partitioning                          :        0.000 s           0.017 s
  | Preloading free-atom quantities on grid    :        0.047 s           0.034 s
  | Free-atom superposition energy             :        0.016 s           0.006 s
  | Total energy evaluation                    :        0.000 s           0.001 s

  Partial memory accounting:
  | Current value for overall tracked memory usage:
  |   Minimum:        0.362 MB (on task 0)
  |   Maximum:        0.367 MB (on task 1)
  |   Average:        0.364 MB
  | Peak value for overall tracked memory usage:
  |   Minimum:        2.463 MB (on task 4 after allocating wave)
  |   Maximum:        2.649 MB (on task 3 after allocating wave)
  |   Average:        2.579 MB
  | Largest tracked array allocation so far:
  |   Minimum:        0.935 MB (hamiltonian_shell on task 4)
  |   Maximum:        1.061 MB (hamiltonian_shell on task 3)
  |   Average:        1.012 MB
  Note:  These values currently only include a subset of arrays which are explicitly tracked.
  The "true" memory usage will be greater.
------------------------------------------------------------

------------------------------------------------------------
          Begin self-consistency iteration #    1

  Date     :  20201111, Time     :  151208.100
------------------------------------------------------------
  Evaluating new KS density using the density matrix
  Evaluating density matrix
  Time summed over all CPUs for getting density from density matrix: real work        0.492 s, elapsed        0.501 s
  Integration grid: deviation in total charge (<rho> - N_e) =   0.000000E+00
  Pulay mixing of updated and previous charge densities.
  Renormalizing the density to the exact electron count on the 3D integration grid.
  | Formal number of electrons (from input files) :      12.0000000000
  | Integrated number of electrons on 3D grid     :      11.9997328274
  | Charge integration error                      :      -0.0002671726
  | Normalization factor for density and gradient :       1.0000222649

  Evaluating partitioned Hartree potential by multipole expansion.
  | Original multipole sum: apparent total charge =   0.116839E-14
  | Sum of charges compensated after spline to logarithmic grids =   0.536167E-05
  | Analytical far-field extrapolation by fixed multipoles:
  | Hartree multipole sum: apparent total charge =   0.119607E-14
  Summing up the Hartree potential.
  Calculating dipole correction via potential gradient
  | Dipole correction jump would be         :    -0.01531869 eV/Angstrom
  | Gradient for dipole correction is not accurate enough. Error:    100.00 %
  | Dipole correction not performed.
  Time summed over all CPUs for potential: real work        0.379 s, elapsed        0.406 s
  | RMS charge density error from multipole expansion :   0.839859E-03
  | Average real-space part of the electrostatic potential :      0.00092484 eV

  Integrating Hamiltonian matrix: batch-based integration.
  Time summed over all CPUs for integration: real work        0.265 s, elapsed        0.276 s

  Updating Kohn-Sham eigenvalues and eigenvectors using ELSI and the (modified) LAPACK eigensolver.
  Starting LAPACK eigensolver
  Finished Cholesky decomposition
  | Time :     0.000 s
  Finished transformation to standard eigenproblem
  | Time :     0.000 s
  Finished solving standard eigenproblem
  | Time :     0.000 s
  Finished back-transformation of eigenvectors
  | Time :     0.000 s

  Obtaining occupation numbers and chemical potential using ELSI.
  | Chemical potential (Fermi level):    -7.00225758 eV
  Writing Kohn-Sham eigenvalues.
  K-point:       1 at    0.000000    0.000000    0.000000 (in units of recip. lattice)

  State    Occupation    Eigenvalue [Ha]    Eigenvalue [eV]
      1       2.00000         -14.257887         -387.97683
      2       2.00000          -6.695847         -182.20328
      3       2.00000          -1.043486          -28.39469
      4       2.00000          -0.547588          -14.90062
      5       2.00000          -0.471115          -12.81970
      6       2.00000          -0.471115          -12.81968
      7       0.00000          -0.038320           -1.04273
      8       0.00000           0.003843            0.10456
      9       0.00000           0.045603            1.24092
     10       0.00000           0.045646            1.24208
     11       0.00000           0.200016            5.44272
     12       0.00000           0.337877            9.19411

  What follows are estimated values for band gap, HOMO, LUMO, etc.
  | They are estimated on a discrete k-point grid and not necessarily exact.
  | For converged numbers, create a DOS and/or band structure plot on a denser k-grid.

  Highest occupied state (VBM) at    -10.62576478 eV (relative to internal zero)
  | Occupation number:      2.00000000
  | K-point:      11 at    0.333333    0.333333    0.000000 (in units of recip. lattice)

  Lowest unoccupied state (CBM) at    -4.34329052 eV (relative to internal zero)
  | Occupation number:      0.00000000
  | K-point:      11 at    0.333333    0.333333    0.000000 (in units of recip. lattice)

  ESTIMATED overall HOMO-LUMO gap:      6.28247426 eV between HOMO at k-point 11 and LUMO at k-point 11
  | This appears to be a direct band gap.
  The gap value is above 0.2 eV. Unless you are using a very sparse k-point grid,
  this system is most likely an insulator or a semiconductor.

  Writing energy levels:
  | Potential vacuum level, "upper" slab surface:    -0.00000000 eV
  | Potential vacuum level, "lower" slab surface:    -0.00000000 eV
  | Work function ("upper" slab surface)        :     7.00225758 eV
  | Work function ("lower" slab surface)        :     7.00225758 eV
  *** Warning: band gap may exist, check the suitability to define work function using chemical potential.
  | VBM (reference: upper vacuum level)         :    10.62576478 eV
  | CBM (reference: upper vacuum level)         :     4.34329052 eV

  Total energy components:
  | Sum of eigenvalues            :         -47.16884407 Ha       -1283.52955239 eV
  | XC energy correction          :         -10.86581477 Ha        -295.67386350 eV
  | XC potential correction       :          13.96004801 Ha         379.87223400 eV
  | Free-atom electrostatic energy:         -35.52152100 Ha        -966.58976604 eV
  | Hartree energy correction     :          -0.17391548 Ha          -4.73248098 eV
  | Entropy correction            :          -0.00000000 Ha          -0.00000000 eV
  | ---------------------------
  | Total energy                  :         -79.77004731 Ha       -2170.65342892 eV
  | Total energy, T -> 0          :         -79.77004731 Ha       -2170.65342892 eV  <-- do not rely on this value for anything but (periodic) metals
  | Electronic free energy        :         -79.77004731 Ha       -2170.65342892 eV

  Derived energy quantities:
  | Kinetic energy                :          79.42369272 Ha        2161.22864102 eV
  | Electrostatic energy          :        -148.32792526 Ha       -4036.20820644 eV
  | Energy correction for multipole
  | error in Hartree potential    :           0.00147806 Ha           0.04021994 eV
  | Sum of eigenvalues per atom                           :        -641.76477620 eV
  | Total energy (T->0) per atom                          :       -1085.32671446 eV  <-- do not rely on this value for anything but (periodic) metals
  | Electronic free energy per atom                       :       -1085.32671446 eV

  Self-consistency convergence accuracy:
  | Change of charge density      :  0.2878E+00
  | Change of sum of eigenvalues  :  0.4921E+01 eV
  | Change of total energy        :  0.2854E+00 eV

  End self-consistency iteration #     1       :  max(cpu_time)    wall_clock(cpu1)
  | Time for this iteration                    :        0.234 s           0.235 s
  | Charge density update                      :        0.094 s           0.084 s
  | Density mixing & preconditioning           :        0.016 s           0.020 s
  | Hartree multipole update                   :        0.000 s           0.000 s
  | Hartree multipole summation                :        0.078 s           0.082 s
  | Integration                                :        0.047 s           0.047 s
  | Solution of K.-S. eqns.                    :        0.000 s           0.002 s
  | Total energy evaluation                    :        0.000 s           0.000 s

  Partial memory accounting:
  | Current value for overall tracked memory usage:
  |   Minimum:        0.362 MB (on task 0)
  |   Maximum:        0.367 MB (on task 1)
  |   Average:        0.364 MB
  | Peak value for overall tracked memory usage:
  |   Minimum:        3.091 MB (on task 4 after allocating gradient_basis_wave)
  |   Maximum:        3.336 MB (on task 3 after allocating gradient_basis_wave)
  |   Average:        3.243 MB
  | Largest tracked array allocation so far:
  |   Minimum:        0.935 MB (hamiltonian_shell on task 4)
  |   Maximum:        1.061 MB (hamiltonian_shell on task 3)
  |   Average:        1.012 MB
  Note:  These values currently only include a subset of arrays which are explicitly tracked.
  The "true" memory usage will be greater.
------------------------------------------------------------

------------------------------------------------------------
          Begin self-consistency iteration #    2

  Date     :  20201111, Time     :  151208.336
------------------------------------------------------------
  Evaluating new KS density using the density matrix
  Evaluating density matrix
  Time summed over all CPUs for getting density from density matrix: real work        0.492 s, elapsed        0.531 s
  Integration grid: deviation in total charge (<rho> - N_e) =   0.000000E+00
  Pulay mixing of updated and previous charge densities.
  Renormalizing the density to the exact electron count on the 3D integration grid.
  | Formal number of electrons (from input files) :      12.0000000000
  | Integrated number of electrons on 3D grid     :      11.9974155915
  | Charge integration error                      :      -0.0025844085
  | Normalization factor for density and gradient :       1.0002154138

  Evaluating partitioned Hartree potential by multipole expansion.
  | Original multipole sum: apparent total charge =   0.629702E-14
  | Sum of charges compensated after spline to logarithmic grids =   0.529894E-04
  | Analytical far-field extrapolation by fixed multipoles:
  | Hartree multipole sum: apparent total charge =   0.634622E-14
  Summing up the Hartree potential.
  Calculating dipole correction via potential gradient
  | Dipole correction jump would be         :    -0.00081303 eV/Angstrom
  | Gradient for dipole correction is not accurate enough. Error:    100.00 %
  | Dipole correction not performed.
  Time summed over all CPUs for potential: real work        0.404 s, elapsed        0.410 s
  | RMS charge density error from multipole expansion :   0.872652E-02
  | Average real-space part of the electrostatic potential :      0.00928469 eV

  Integrating Hamiltonian matrix: batch-based integration.
  Time summed over all CPUs for integration: real work        0.281 s, elapsed        0.314 s

  Updating Kohn-Sham eigenvalues and eigenvectors using ELSI and the (modified) LAPACK eigensolver.
  Starting LAPACK eigensolver
  Finished Cholesky decomposition
  | Time :     0.000 s
  Finished transformation to standard eigenproblem
  | Time :     0.000 s
  Finished solving standard eigenproblem
  | Time :     0.000 s
  Finished back-transformation of eigenvectors
  | Time :     0.000 s

  Obtaining occupation numbers and chemical potential using ELSI.
  | Chemical potential (Fermi level):    -4.46006863 eV
  What follows are estimated values for band gap, HOMO, LUMO, etc.
  | They are estimated on a discrete k-point grid and not necessarily exact.
  | For converged numbers, create a DOS and/or band structure plot on a denser k-grid.

  Highest occupied state (VBM) at     -7.15439958 eV (relative to internal zero)
  | Occupation number:      2.00000000
  | K-point:      11 at    0.333333    0.333333    0.000000 (in units of recip. lattice)

  Lowest unoccupied state (CBM) at    -2.73554204 eV (relative to internal zero)
  | Occupation number:      0.00000000
  | K-point:      11 at    0.333333    0.333333    0.000000 (in units of recip. lattice)

  ESTIMATED overall HOMO-LUMO gap:      4.41885755 eV between HOMO at k-point 11 and LUMO at k-point 11
  | This appears to be a direct band gap.
  The gap value is above 0.2 eV. Unless you are using a very sparse k-point grid,
  this system is most likely an insulator or a semiconductor.

  Total energy components:
  | Sum of eigenvalues            :         -45.55253015 Ha       -1239.54741296 eV
  | XC energy correction          :         -10.97968408 Ha        -298.77240511 eV
  | XC potential correction       :          14.10736749 Ha         383.88100096 eV
  | Free-atom electrostatic energy:         -35.52152100 Ha        -966.58976604 eV
  | Hartree energy correction     :          -1.77583375 Ha         -48.32289499 eV
  | Entropy correction            :          -0.00000000 Ha          -0.00000000 eV
  | ---------------------------
  | Total energy                  :         -79.72220150 Ha       -2169.35147813 eV
  | Total energy, T -> 0          :         -79.72220150 Ha       -2169.35147813 eV  <-- do not rely on this value for anything but (periodic) metals
  | Electronic free energy        :         -79.72220150 Ha       -2169.35147813 eV

  Derived energy quantities:
  | Kinetic energy                :          79.94981059 Ha        2175.54503665 eV
  | Electrostatic energy          :        -148.69232801 Ha       -4046.12410967 eV
  | Energy correction for multipole
  | error in Hartree potential    :           0.01489998 Ha           0.40544902 eV
  | Sum of eigenvalues per atom                           :        -619.77370648 eV
  | Total energy (T->0) per atom                          :       -1084.67573907 eV  <-- do not rely on this value for anything but (periodic) metals
  | Electronic free energy per atom                       :       -1084.67573907 eV

  Self-consistency convergence accuracy:
  | Change of charge density      :  0.2619E+00
  | Change of sum of eigenvalues  :  0.4398E+02 eV
  | Change of total energy        :  0.1302E+01 eV

  End self-consistency iteration #     2       :  max(cpu_time)    wall_clock(cpu1)
  | Time for this iteration                    :        0.234 s           0.248 s
  | Charge density update                      :        0.078 s           0.090 s
  | Density mixing & preconditioning           :        0.016 s           0.020 s
  | Hartree multipole update                   :        0.016 s           0.000 s
  | Hartree multipole summation                :        0.078 s           0.084 s
  | Integration                                :        0.047 s           0.053 s
  | Solution of K.-S. eqns.                    :        0.000 s           0.001 s
  | Total energy evaluation                    :        0.000 s           0.000 s

  Partial memory accounting:
  | Current value for overall tracked memory usage:
  |   Minimum:        0.362 MB (on task 0)
  |   Maximum:        0.368 MB (on task 1)
  |   Average:        0.364 MB
  | Peak value for overall tracked memory usage:
  |   Minimum:        3.091 MB (on task 4 after allocating gradient_basis_wave)
  |   Maximum:        3.336 MB (on task 3 after allocating gradient_basis_wave)
  |   Average:        3.243 MB
  | Largest tracked array allocation so far:
  |   Minimum:        0.935 MB (hamiltonian_shell on task 4)
  |   Maximum:        1.061 MB (hamiltonian_shell on task 3)
  |   Average:        1.012 MB
  Note:  These values currently only include a subset of arrays which are explicitly tracked.
  The "true" memory usage will be greater.
------------------------------------------------------------

------------------------------------------------------------
          Begin self-consistency iteration #    3

  Date     :  20201111, Time     :  151208.590
------------------------------------------------------------
  Evaluating new KS density using the density matrix
  Evaluating density matrix
  Time summed over all CPUs for getting density from density matrix: real work        0.474 s, elapsed        0.498 s
  Integration grid: deviation in total charge (<rho> - N_e) =  -3.552714E-15
  Pulay mixing of updated and previous charge densities.
  Renormalizing the density to the exact electron count on the 3D integration grid.
  | Formal number of electrons (from input files) :      12.0000000000
  | Integrated number of electrons on 3D grid     :      11.9984027197
  | Charge integration error                      :      -0.0015972803
  | Normalization factor for density and gradient :       1.0001331244

  Evaluating partitioned Hartree potential by multipole expansion.
  | Original multipole sum: apparent total charge =   0.428001E-14
  | Sum of charges compensated after spline to logarithmic grids =   0.516518E-04
  | Analytical far-field extrapolation by fixed multipoles:
  | Hartree multipole sum: apparent total charge =   0.474736E-14
  Summing up the Hartree potential.
  Calculating dipole correction via potential gradient
  | Dipole correction jump would be         :    -0.27902352 eV/Angstrom
  | Gradient for dipole correction is not accurate enough. Error:    100.00 %
  | Dipole correction not performed.
  Time summed over all CPUs for potential: real work        0.432 s, elapsed        0.481 s
  | RMS charge density error from multipole expansion :   0.125611E-01
  | Average real-space part of the electrostatic potential :      0.01075627 eV

  Integrating Hamiltonian matrix: batch-based integration.
  Time summed over all CPUs for integration: real work        0.260 s, elapsed        0.266 s

  Updating Kohn-Sham eigenvalues and eigenvectors using ELSI and the (modified) LAPACK eigensolver.
  Starting LAPACK eigensolver
  Finished Cholesky decomposition
  | Time :     0.000 s
  Finished transformation to standard eigenproblem
  | Time :     0.000 s
  Finished solving standard eigenproblem
  | Time :     0.000 s
  Finished back-transformation of eigenvectors
  | Time :     0.000 s

  Obtaining occupation numbers and chemical potential using ELSI.
  | Chemical potential (Fermi level):    -3.75438713 eV
  What follows are estimated values for band gap, HOMO, LUMO, etc.
  | They are estimated on a discrete k-point grid and not necessarily exact.
  | For converged numbers, create a DOS and/or band structure plot on a denser k-grid.

  Highest occupied state (VBM) at     -6.71017385 eV (relative to internal zero)
  | Occupation number:      2.00000000
  | K-point:      11 at    0.333333    0.333333    0.000000 (in units of recip. lattice)

  Lowest unoccupied state (CBM) at    -2.13221258 eV (relative to internal zero)
  | Occupation number:      0.00000000
  | K-point:      11 at    0.333333    0.333333    0.000000 (in units of recip. lattice)

  ESTIMATED overall HOMO-LUMO gap:      4.57796128 eV between HOMO at k-point 11 and LUMO at k-point 11
  | This appears to be a direct band gap.
  The gap value is above 0.2 eV. Unless you are using a very sparse k-point grid,
  this system is most likely an insulator or a semiconductor.

  Checking to see if s.c.f. parameters should be adjusted.
  The system likely has a gap. Increased the default Pulay mixing parameter (charge_mix_param). Value:   0.200000 .
  Kept the default occupation width. Value:   0.010000 eV.

  Total energy components:
  | Sum of eigenvalues            :         -45.28098910 Ha       -1232.15840497 eV
  | XC energy correction          :         -10.98462630 Ha        -298.90688992 eV
  | XC potential correction       :          14.11433790 Ha         384.07067546 eV
  | Free-atom electrostatic energy:         -35.52152100 Ha        -966.58976604 eV
  | Hartree energy correction     :          -2.04705390 Ha         -55.70317076 eV
  | Entropy correction            :          -0.00000000 Ha          -0.00000000 eV
  | ---------------------------
  | Total energy                  :         -79.71985241 Ha       -2169.28755623 eV
  | Total energy, T -> 0          :         -79.71985241 Ha       -2169.28755623 eV  <-- do not rely on this value for anything but (periodic) metals
  | Electronic free energy        :         -79.71985241 Ha       -2169.28755623 eV

  Derived energy quantities:
  | Kinetic energy                :          79.78872493 Ha        2171.16167270 eV
  | Electrostatic energy          :        -148.52395103 Ha       -4041.54233901 eV
  | Energy correction for multipole
  | error in Hartree potential    :           0.02046609 Ha           0.55691060 eV
  | Sum of eigenvalues per atom                           :        -616.07920248 eV
  | Total energy (T->0) per atom                          :       -1084.64377812 eV  <-- do not rely on this value for anything but (periodic) metals
  | Electronic free energy per atom                       :       -1084.64377812 eV

  Self-consistency convergence accuracy:
  | Change of charge density      :  0.9011E-01
  | Change of sum of eigenvalues  :  0.7389E+01 eV
  | Change of total energy        :  0.6392E-01 eV

  End self-consistency iteration #     3       :  max(cpu_time)    wall_clock(cpu1)
  | Time for this iteration                    :        0.266 s           0.248 s
  | Charge density update                      :        0.094 s           0.084 s
  | Density mixing & preconditioning           :        0.016 s           0.019 s
  | Hartree multipole update                   :        0.000 s           0.000 s
  | Hartree multipole summation                :        0.094 s           0.097 s
  | Integration                                :        0.047 s           0.046 s
  | Solution of K.-S. eqns.                    :        0.016 s           0.001 s
  | Total energy evaluation                    :        0.000 s           0.000 s

  Partial memory accounting:
  | Current value for overall tracked memory usage:
  |   Minimum:        0.363 MB (on task 0)
  |   Maximum:        0.368 MB (on task 1)
  |   Average:        0.364 MB
  | Peak value for overall tracked memory usage:
  |   Minimum:        3.092 MB (on task 4 after allocating gradient_basis_wave)
  |   Maximum:        3.336 MB (on task 3 after allocating gradient_basis_wave)
  |   Average:        3.244 MB
  | Largest tracked array allocation so far:
  |   Minimum:        0.935 MB (hamiltonian_shell on task 4)
  |   Maximum:        1.061 MB (hamiltonian_shell on task 3)
  |   Average:        1.012 MB
  Note:  These values currently only include a subset of arrays which are explicitly tracked.
  The "true" memory usage will be greater.
------------------------------------------------------------

------------------------------------------------------------
          Begin self-consistency iteration #    4

  Date     :  20201111, Time     :  151208.838
------------------------------------------------------------
  Evaluating new KS density using the density matrix
  Evaluating density matrix
  Time summed over all CPUs for getting density from density matrix: real work        0.479 s, elapsed        0.492 s
  Integration grid: deviation in total charge (<rho> - N_e) =  -3.552714E-15
  Pulay mixing of updated and previous charge densities.
  Renormalizing the density to the exact electron count on the 3D integration grid.
  | Formal number of electrons (from input files) :      12.0000000000
  | Integrated number of electrons on 3D grid     :      11.9981944864
  | Charge integration error                      :      -0.0018055136
  | Normalization factor for density and gradient :       1.0001504821

  Evaluating partitioned Hartree potential by multipole expansion.
  | Original multipole sum: apparent total charge =   0.413242E-14
  | Sum of charges compensated after spline to logarithmic grids =   0.542867E-04
  | Analytical far-field extrapolation by fixed multipoles:
  | Hartree multipole sum: apparent total charge =   0.415702E-14
  Summing up the Hartree potential.
  Calculating dipole correction via potential gradient
  | Dipole correction jump would be         :    -0.03126563 eV/Angstrom
  | Gradient for dipole correction is not accurate enough. Error:    100.00 %
  | Dipole correction not performed.
  Time summed over all CPUs for potential: real work        0.412 s, elapsed        0.424 s
  | RMS charge density error from multipole expansion :   0.175623E-01
  | Average real-space part of the electrostatic potential :      0.01297101 eV

  Integrating Hamiltonian matrix: batch-based integration.
  Time summed over all CPUs for integration: real work        0.272 s, elapsed        0.286 s

  Updating Kohn-Sham eigenvalues and eigenvectors using ELSI and the (modified) LAPACK eigensolver.
  Starting LAPACK eigensolver
  Finished Cholesky decomposition
  | Time :     0.000 s
  Finished transformation to standard eigenproblem
  | Time :     0.000 s
  Finished solving standard eigenproblem
  | Time :     0.000 s
  Finished back-transformation of eigenvectors
  | Time :     0.000 s

  Obtaining occupation numbers and chemical potential using ELSI.
  | Chemical potential (Fermi level):    -2.81206202 eV
  What follows are estimated values for band gap, HOMO, LUMO, etc.
  | They are estimated on a discrete k-point grid and not necessarily exact.
  | For converged numbers, create a DOS and/or band structure plot on a denser k-grid.

  Highest occupied state (VBM) at     -6.06480535 eV (relative to internal zero)
  | Occupation number:      2.00000000
  | K-point:      11 at    0.333333    0.333333    0.000000 (in units of recip. lattice)

  Lowest unoccupied state (CBM) at    -1.37738439 eV (relative to internal zero)
  | Occupation number:      0.00000000
  | K-point:      11 at    0.333333    0.333333    0.000000 (in units of recip. lattice)

  ESTIMATED overall HOMO-LUMO gap:      4.68742095 eV between HOMO at k-point 11 and LUMO at k-point 11
  | This appears to be a direct band gap.
  The gap value is above 0.2 eV. Unless you are using a very sparse k-point grid,
  this system is most likely an insulator or a semiconductor.

  Total energy components:
  | Sum of eigenvalues            :         -44.90820648 Ha       -1222.01447361 eV
  | XC energy correction          :         -10.99687002 Ha        -299.24005850 eV
  | XC potential correction       :          14.13062262 Ha         384.51380526 eV
  | Free-atom electrostatic energy:         -35.52152100 Ha        -966.58976604 eV
  | Hartree energy correction     :          -2.42300425 Ha         -65.93330035 eV
  | Entropy correction            :          -0.00000000 Ha          -0.00000000 eV
  | ---------------------------
  | Total energy                  :         -79.71897914 Ha       -2169.26379323 eV
  | Total energy, T -> 0          :         -79.71897914 Ha       -2169.26379323 eV  <-- do not rely on this value for anything but (periodic) metals
  | Electronic free energy        :         -79.71897914 Ha       -2169.26379323 eV

  Derived energy quantities:
  | Kinetic energy                :          79.60104113 Ha        2166.05453687 eV
  | Electrostatic energy          :        -148.32315025 Ha       -4036.07827160 eV
  | Energy correction for multipole
  | error in Hartree potential    :           0.02784032 Ha           0.75757373 eV
  | Sum of eigenvalues per atom                           :        -611.00723680 eV
  | Total energy (T->0) per atom                          :       -1084.63189661 eV  <-- do not rely on this value for anything but (periodic) metals
  | Electronic free energy per atom                       :       -1084.63189661 eV

  Self-consistency convergence accuracy:
  | Change of charge density      :  0.5018E-01
  | Change of sum of eigenvalues  :  0.1014E+02 eV
  | Change of total energy        :  0.2376E-01 eV

  End self-consistency iteration #     4       :  max(cpu_time)    wall_clock(cpu1)
  | Time for this iteration                    :        0.234 s           0.240 s
  | Charge density update                      :        0.078 s           0.084 s
  | Density mixing & preconditioning           :        0.016 s           0.020 s
  | Hartree multipole update                   :        0.000 s           0.000 s
  | Hartree multipole summation                :        0.094 s           0.086 s
  | Integration                                :        0.047 s           0.048 s
  | Solution of K.-S. eqns.                    :        0.000 s           0.001 s
  | Total energy evaluation                    :        0.000 s           0.000 s

  Partial memory accounting:
  | Current value for overall tracked memory usage:
  |   Minimum:        0.363 MB (on task 0)
  |   Maximum:        0.368 MB (on task 1)
  |   Average:        0.364 MB
  | Peak value for overall tracked memory usage:
  |   Minimum:        3.092 MB (on task 4 after allocating gradient_basis_wave)
  |   Maximum:        3.336 MB (on task 3 after allocating gradient_basis_wave)
  |   Average:        3.244 MB
  | Largest tracked array allocation so far:
  |   Minimum:        0.935 MB (hamiltonian_shell on task 4)
  |   Maximum:        1.061 MB (hamiltonian_shell on task 3)
  |   Average:        1.012 MB
  Note:  These values currently only include a subset of arrays which are explicitly tracked.
  The "true" memory usage will be greater.
------------------------------------------------------------

------------------------------------------------------------
          Begin self-consistency iteration #    5

  Date     :  20201111, Time     :  151209.079
------------------------------------------------------------
  Evaluating new KS density using the density matrix
  Evaluating density matrix
  Time summed over all CPUs for getting density from density matrix: real work        0.465 s, elapsed        0.480 s
  Integration grid: deviation in total charge (<rho> - N_e) =   1.776357E-15
  Pulay mixing of updated and previous charge densities.
  Renormalizing the density to the exact electron count on the 3D integration grid.
  | Formal number of electrons (from input files) :      12.0000000000
  | Integrated number of electrons on 3D grid     :      12.0007542354
  | Charge integration error                      :       0.0007542354
  | Normalization factor for density and gradient :       0.9999371510

  Evaluating partitioned Hartree potential by multipole expansion.
  | Original multipole sum: apparent total charge =  -0.501794E-14
  | Sum of charges compensated after spline to logarithmic grids =   0.620458E-04
  | Analytical far-field extrapolation by fixed multipoles:
  | Hartree multipole sum: apparent total charge =  -0.499334E-14
  Summing up the Hartree potential.
  Calculating dipole correction via potential gradient
  | Dipole correction jump would be         :     0.10444426 eV/Angstrom
  | Gradient for dipole correction is not accurate enough. Error:    100.00 %
  | Dipole correction not performed.
  Time summed over all CPUs for potential: real work        0.422 s, elapsed        0.460 s
  | RMS charge density error from multipole expansion :   0.180277E-01
  | Average real-space part of the electrostatic potential :      0.01346754 eV

  Integrating Hamiltonian matrix: batch-based integration.
  Time summed over all CPUs for integration: real work        0.309 s, elapsed        0.320 s

  Updating Kohn-Sham eigenvalues and eigenvectors using ELSI and the (modified) LAPACK eigensolver.
  Starting LAPACK eigensolver
  Finished Cholesky decomposition
  | Time :     0.000 s
  Finished transformation to standard eigenproblem
  | Time :     0.000 s
  Finished solving standard eigenproblem
  | Time :     0.000 s
  Finished back-transformation of eigenvectors
  | Time :     0.000 s

  Obtaining occupation numbers and chemical potential using ELSI.
  | Chemical potential (Fermi level):    -2.95179265 eV
  What follows are estimated values for band gap, HOMO, LUMO, etc.
  | They are estimated on a discrete k-point grid and not necessarily exact.
  | For converged numbers, create a DOS and/or band structure plot on a denser k-grid.

  Highest occupied state (VBM) at     -6.15305763 eV (relative to internal zero)
  | Occupation number:      2.00000000
  | K-point:      11 at    0.333333    0.333333    0.000000 (in units of recip. lattice)

  Lowest unoccupied state (CBM) at    -1.50028014 eV (relative to internal zero)
  | Occupation number:      0.00000000
  | K-point:      11 at    0.333333    0.333333    0.000000 (in units of recip. lattice)

  ESTIMATED overall HOMO-LUMO gap:      4.65277748 eV between HOMO at k-point 11 and LUMO at k-point 11
  | This appears to be a direct band gap.
  The gap value is above 0.2 eV. Unless you are using a very sparse k-point grid,
  this system is most likely an insulator or a semiconductor.

  Total energy components:
  | Sum of eigenvalues            :         -44.97152971 Ha       -1223.73758650 eV
  | XC energy correction          :         -10.99188442 Ha        -299.10439321 eV
  | XC potential correction       :          14.12427537 Ha         384.34108801 eV
  | Free-atom electrostatic energy:         -35.52152100 Ha        -966.58976604 eV
  | Hartree energy correction     :          -2.35826765 Ha         -64.17172779 eV
  | Entropy correction            :          -0.00000000 Ha          -0.00000000 eV
  | ---------------------------
  | Total energy                  :         -79.71892740 Ha       -2169.26238554 eV
  | Total energy, T -> 0          :         -79.71892740 Ha       -2169.26238554 eV  <-- do not rely on this value for anything but (periodic) metals
  | Electronic free energy        :         -79.71892740 Ha       -2169.26238554 eV

  Derived energy quantities:
  | Kinetic energy                :          79.54418678 Ha        2164.50745111 eV
  | Electrostatic energy          :        -148.27122977 Ha       -4034.66544343 eV
  | Energy correction for multipole
  | error in Hartree potential    :           0.02901203 Ha           0.78945745 eV
  | Sum of eigenvalues per atom                           :        -611.86879325 eV
  | Total energy (T->0) per atom                          :       -1084.63119277 eV  <-- do not rely on this value for anything but (periodic) metals
  | Electronic free energy per atom                       :       -1084.63119277 eV

  Self-consistency convergence accuracy:
  | Change of charge density      :  0.8570E-02
  | Change of sum of eigenvalues  : -0.1723E+01 eV
  | Change of total energy        :  0.1408E-02 eV

  End self-consistency iteration #     5       :  max(cpu_time)    wall_clock(cpu1)
  | Time for this iteration                    :        0.250 s           0.248 s
  | Charge density update                      :        0.078 s           0.081 s
  | Density mixing & preconditioning           :        0.016 s           0.018 s
  | Hartree multipole update                   :        0.000 s           0.001 s
  | Hartree multipole summation                :        0.094 s           0.093 s
  | Integration                                :        0.062 s           0.053 s
  | Solution of K.-S. eqns.                    :        0.000 s           0.002 s
  | Total energy evaluation                    :        0.000 s           0.000 s

  Partial memory accounting:
  | Current value for overall tracked memory usage:
  |   Minimum:        0.363 MB (on task 0)
  |   Maximum:        0.368 MB (on task 1)
  |   Average:        0.364 MB
  | Peak value for overall tracked memory usage:
  |   Minimum:        3.092 MB (on task 4 after allocating gradient_basis_wave)
  |   Maximum:        3.336 MB (on task 3 after allocating gradient_basis_wave)
  |   Average:        3.244 MB
  | Largest tracked array allocation so far:
  |   Minimum:        0.935 MB (hamiltonian_shell on task 4)
  |   Maximum:        1.061 MB (hamiltonian_shell on task 3)
  |   Average:        1.012 MB
  Note:  These values currently only include a subset of arrays which are explicitly tracked.
  The "true" memory usage will be greater.
------------------------------------------------------------

------------------------------------------------------------
          Begin self-consistency iteration #    6

  Date     :  20201111, Time     :  151209.327
------------------------------------------------------------
  Evaluating new KS density using the density matrix
  Evaluating density matrix
  Time summed over all CPUs for getting density from density matrix: real work        0.471 s, elapsed        0.507 s
  Integration grid: deviation in total charge (<rho> - N_e) =  -3.552714E-15
  Pulay mixing of updated and previous charge densities.
  Renormalizing the density to the exact electron count on the 3D integration grid.
  | Formal number of electrons (from input files) :      12.0000000000
  | Integrated number of electrons on 3D grid     :      11.9998731821
  | Charge integration error                      :      -0.0001268179
  | Normalization factor for density and gradient :       1.0000105683

  Evaluating partitioned Hartree potential by multipole expansion.
  | Original multipole sum: apparent total charge =   0.241058E-14
  | Sum of charges compensated after spline to logarithmic grids =   0.615390E-04
  | Analytical far-field extrapolation by fixed multipoles:
  | Hartree multipole sum: apparent total charge =   0.233679E-14
  Summing up the Hartree potential.
  Calculating dipole correction via potential gradient
  | Dipole correction jump would be         :    -0.25923554 eV/Angstrom
  | Gradient for dipole correction is not accurate enough. Error:    100.00 %
  | Dipole correction not performed.
  Time summed over all CPUs for potential: real work        0.409 s, elapsed        0.423 s
  | RMS charge density error from multipole expansion :   0.180300E-01
  | Average real-space part of the electrostatic potential :      0.01341341 eV

  Integrating Hamiltonian matrix: batch-based integration.
  Time summed over all CPUs for integration: real work        0.262 s, elapsed        0.269 s

  Updating Kohn-Sham eigenvalues and eigenvectors using ELSI and the (modified) LAPACK eigensolver.
  Starting LAPACK eigensolver
  Finished Cholesky decomposition
  | Time :     0.000 s
  Finished transformation to standard eigenproblem
  | Time :     0.000 s
  Finished solving standard eigenproblem
  | Time :     0.000 s
  Finished back-transformation of eigenvectors
  | Time :     0.000 s

  Obtaining occupation numbers and chemical potential using ELSI.
  | Chemical potential (Fermi level):    -2.94372258 eV
[...]
  |
  | Total       12.000000       -0.000000


  Calculating atom-projected density of states ...
  | Chemical potential is  -2.850090 eV.
  | writing   projected DOS (shifted by the chemical potential) for species N to file atom_proj_dos_N0001.dat.no_soc.
  | writing   projected DOS (raw data) for species N to file atom_proj_dos_N0001_raw.dat.no_soc.
  | writing   projected DOS (shifted by the chemical potential) for species B to file atom_proj_dos_B0002.dat.no_soc.
  | writing   projected DOS (raw data) for species B to file atom_proj_dos_B0002_raw.dat.no_soc.

  Performing spin-orbit-coupled Mulliken charge analysis on all atoms.
*** output_mulliken expected pure occ_numbers
*** sum(occ_numbers) =  1.2000000000000000E+02 instead of  1.2000000000000000E+01
  Full analysis (per state, per k-point, etc.) will NOT be written to separate file 'Mulliken.out.no_soc'.
  This file can be requested by stating 'output mulliken' explicitly.
  Summary of the per-atom charge analysis:
  |
  |  atom       electrons          charge             l=0             l=1             l=2
  |     1        7.457037       -0.457037        3.432444        3.992408        0.032185
  |     2        4.542963        0.457037        2.710194        1.582663        0.250106
  |
  | Total       12.000000       -0.000000


  Calculating atom-projected density of states ...
  | Chemical potential is  -2.703321 eV.
  | writing   projected DOS (shifted by the chemical potential) for species N to file atom_proj_dos_N0001.dat.
  | writing   projected DOS (raw data) for species N to file atom_proj_dos_N0001_raw.dat.
  | writing   projected DOS (shifted by the chemical potential) for species B to file atom_proj_dos_B0002.dat.
  | writing   projected DOS (raw data) for species B to file atom_proj_dos_B0002_raw.dat.
  Mulliken analysis                                       :  max(cpu_time)    wall_clock(cpu1)
  | Time for Mulliken analysis (scalar relativistic)      :          0.016               0.008
  | Time for Mulliken analysis (spin-orbit coupled)       :          0.016               0.026
  | Total time for Mulliken analysis                      :          0.031               0.034
------------------------------------------------------------
 Output mulliken decomposition of band k points for SOC in LAPACK

  -------------------------------------------------------------------
  Writing the requested band structure output (LAPACK version):
  -------------------------------------------------------------------

  Integrating Hamiltonian matrix: batch-based integration.
  Time summed over all CPUs for integration: real work        0.278 s, elapsed        0.286 s
  Integrating SOC matrix: batch-based integration p2 version.
  Allocating        0.085 MB for dist_tab
  Allocating        0.085 MB for dist_tab_sq
  Allocating        0.256 MB for dir_tab
  Allocating        0.005 MB for i_basis_fns
  Allocating        0.099 MB for i_basis_fns_inv
  Allocating        0.005 MB for i_atom_fns
  Allocating        0.925 MB for gradient_basis_wave
  Allocating        0.002 MB for ylm_tab
  Allocating        0.001 MB for radial_wave
  Allocating        0.001 MB for radial_wave_deriv
  Allocating        0.004 MB for i_basis
  Allocating        0.994 MB for soc_shell
  Allocating        0.004 MB for cartesians
  Allocating        0.006 MB for sum_gradient
  Allocating        0.012 MB for sum_hessian
  Allocating        0.001 MB for potential_shell

  Treating all   31 k-points in band plot segment #   1:

  Overlap matrix is not singular
  | Lowest and highest eigenvalues :  0.1843E-02,  0.6656E+01
  Finished singularity check of overlap matrix
  | Time :     0.000 s
  Starting LAPACK eigensolver
  Finished Cholesky decomposition
  | Time :     0.000 s
  Finished transformation to standard eigenproblem
  | Time :     0.000 s
  Finished solving standard eigenproblem
  | Time :     0.000 s
  Finished back-transformation of eigenvectors
  | Time :     0.000 s

  Scalar-relativistic "band gap" along reciprocal space direction number:    1
  | Lowest unoccupied state:      -1.21377967 eV
  | Highest occupied state :      -6.94740626 eV
  | Energy difference      :       5.73362659 eV

  Allocating        0.068 MB for mulliken_decomp

  Spin-orbit-coupled "band gap" along reciprocal space direction number:    1
  | Lowest unoccupied state:      -1.21377947 eV
  | Highest occupied state :      -6.94740390 eV
  | Energy difference      :       5.73362443 eV


  Treating all   31 k-points in band plot segment #   2:


  Scalar-relativistic "band gap" along reciprocal space direction number:    2
  | Lowest unoccupied state:      -1.40809218 eV
  | Highest occupied state :      -6.04870044 eV
  | Energy difference      :       4.64060827 eV

  Allocating        0.068 MB for mulliken_decomp

  Spin-orbit-coupled "band gap" along reciprocal space direction number:    2
  | Lowest unoccupied state:      -1.40810407 eV
  | Highest occupied state :      -6.04869548 eV
  | Energy difference      :       4.64059142 eV


  Treating all   31 k-points in band plot segment #   3:


  Scalar-relativistic "band gap" along reciprocal space direction number:    3
  | Lowest unoccupied state:      -1.40809218 eV
  | Highest occupied state :      -6.04870044 eV
  | Energy difference      :       4.64060827 eV

  Allocating        0.068 MB for mulliken_decomp

  Spin-orbit-coupled "band gap" along reciprocal space direction number:    3
  | Lowest unoccupied state:      -1.40810407 eV
  | Highest occupied state :      -6.04869548 eV
  | Energy difference      :       4.64059142 eV


  Treating all   31 k-points in band plot segment #   4:


  Scalar-relativistic "band gap" along reciprocal space direction number:    4
  | Lowest unoccupied state:      -1.21377967 eV
  | Highest occupied state :      -6.94740626 eV
  | Energy difference      :       5.73362659 eV

  Allocating        0.068 MB for mulliken_decomp

  Spin-orbit-coupled "band gap" along reciprocal space direction number:    4
  | Lowest unoccupied state:      -1.21377947 eV
  | Highest occupied state :      -6.94740390 eV
  | Energy difference      :       5.73362443 eV


  Treating all   31 k-points in band plot segment #   5:


  Scalar-relativistic "band gap" along reciprocal space direction number:    5
  | Lowest unoccupied state:      -1.40809218 eV
  | Highest occupied state :      -6.04870044 eV
  | Energy difference      :       4.64060827 eV

  Allocating        0.068 MB for mulliken_decomp

  Spin-orbit-coupled "band gap" along reciprocal space direction number:    5
  | Lowest unoccupied state:      -1.40810407 eV
  | Highest occupied state :      -6.04869548 eV
  | Energy difference      :       4.64059142 eV


  Treating all   31 k-points in band plot segment #   6:


  Scalar-relativistic "band gap" along reciprocal space direction number:    6
  | Lowest unoccupied state:      -1.40809218 eV
  | Highest occupied state :      -6.04870044 eV
  | Energy difference      :       4.64060827 eV

  Allocating        0.068 MB for mulliken_decomp

  Spin-orbit-coupled "band gap" along reciprocal space direction number:    6
  | Lowest unoccupied state:      -1.40810407 eV
  | Highest occupied state :      -6.04869548 eV
  | Energy difference      :       4.64059142 eV

  Scalar-relativistic "band gap" of total set of bands:
  | Lowest unoccupied state:      -1.40809218 eV
  | Highest occupied state :      -6.04870044 eV
  | Energy difference      :       4.64060827 eV

  Spin-orbit-coupled "band gap" of total set of bands:
  | Lowest unoccupied state:      -1.40810407 eV
  | Highest occupied state :      -6.04869548 eV
  | Energy difference      :       4.64059142 eV


  Band Structure                                          :  max(cpu_time) wall_clock(cpu1)
  | Total Time                                            :          0.516            0.571
------------------------------------------------------------

  -------------------------------------------------------------------
  Writing the requested band structure output (LAPACK version):
  -------------------------------------------------------------------

  Integrating Hamiltonian matrix: batch-based integration.
  Time summed over all CPUs for integration: real work        0.256 s, elapsed        0.263 s
  Integrating SOC matrix: batch-based integration p2 version.
  Allocating        0.085 MB for dist_tab
  Allocating        0.085 MB for dist_tab_sq
  Allocating        0.256 MB for dir_tab
  Allocating        0.005 MB for i_basis_fns
  Allocating        0.099 MB for i_basis_fns_inv
  Allocating        0.005 MB for i_atom_fns
  Allocating        0.925 MB for gradient_basis_wave
  Allocating        0.002 MB for ylm_tab
  Allocating        0.001 MB for radial_wave
  Allocating        0.001 MB for radial_wave_deriv
  Allocating        0.004 MB for i_basis
  Allocating        0.994 MB for soc_shell
  Allocating        0.004 MB for cartesians
  Allocating        0.006 MB for sum_gradient
  Allocating        0.012 MB for sum_hessian
  Allocating        0.001 MB for potential_shell

  Treating all   31 k-points in band plot segment #   1:


  Scalar-relativistic "band gap" along reciprocal space direction number:    1
  | Lowest unoccupied state:      -1.21377967 eV
  | Highest occupied state :      -6.94740626 eV
  | Energy difference      :       5.73362659 eV


Spin-orbit-coupled "band gap" along reciprocal space direction number:    1
  | Lowest unoccupied state:      -1.21377947 eV
  | Highest occupied state :      -6.94740390 eV
  | Energy difference      :       5.73362443 eV


  Treating all   31 k-points in band plot segment #   2:


  Scalar-relativistic "band gap" along reciprocal space direction number:    2
  | Lowest unoccupied state:      -1.40809218 eV
  | Highest occupied state :      -6.04870044 eV
  | Energy difference      :       4.64060827 eV


Spin-orbit-coupled "band gap" along reciprocal space direction number:    2
  | Lowest unoccupied state:      -1.40810407 eV
  | Highest occupied state :      -6.04869548 eV
  | Energy difference      :       4.64059142 eV


  Treating all   31 k-points in band plot segment #   3:


  Scalar-relativistic "band gap" along reciprocal space direction number:    3
  | Lowest unoccupied state:      -1.40809218 eV
  | Highest occupied state :      -6.04870044 eV
  | Energy difference      :       4.64060827 eV


Spin-orbit-coupled "band gap" along reciprocal space direction number:    3
  | Lowest unoccupied state:      -1.40810407 eV
  | Highest occupied state :      -6.04869548 eV
  | Energy difference      :       4.64059142 eV


  Treating all   31 k-points in band plot segment #   4:


  Scalar-relativistic "band gap" along reciprocal space direction number:    4
  | Lowest unoccupied state:      -1.21377967 eV
  | Highest occupied state :      -6.94740626 eV
  | Energy difference      :       5.73362659 eV


Spin-orbit-coupled "band gap" along reciprocal space direction number:    4
  | Lowest unoccupied state:      -1.21377947 eV
  | Highest occupied state :      -6.94740390 eV
  | Energy difference      :       5.73362443 eV


  Treating all   31 k-points in band plot segment #   5:


  Scalar-relativistic "band gap" along reciprocal space direction number:    5
  | Lowest unoccupied state:      -1.40809218 eV
  | Highest occupied state :      -6.04870044 eV
  | Energy difference      :       4.64060827 eV


Spin-orbit-coupled "band gap" along reciprocal space direction number:    5
  | Lowest unoccupied state:      -1.40810407 eV
  | Highest occupied state :      -6.04869548 eV
  | Energy difference      :       4.64059142 eV


  Treating all   31 k-points in band plot segment #   6:


  Scalar-relativistic "band gap" along reciprocal space direction number:    6
  | Lowest unoccupied state:      -1.40809218 eV
  | Highest occupied state :      -6.04870044 eV
  | Energy difference      :       4.64060827 eV


Spin-orbit-coupled "band gap" along reciprocal space direction number:    6
  | Lowest unoccupied state:      -1.40810407 eV
  | Highest occupied state :      -6.04869548 eV
  | Energy difference      :       4.64059142 eV

  Scalar-relativistic "band gap" of total set of bands:
  | Lowest unoccupied state:      -1.40809218 eV
  | Highest occupied state :      -6.04870044 eV
  | Energy difference      :       4.64060827 eV

  Spin-orbit-coupled "band gap" of total set of bands:
  | Lowest unoccupied state:      -1.40810407 eV
  | Highest occupied state :      -6.04869548 eV
  | Energy difference      :       4.64059142 eV


  Band Structure                                          :  max(cpu_time) wall_clock(cpu1)
  | Total Time                                            :          0.406            0.403
------------------------------------------------------------

------------------------------------------------------------------------------
  Final output of selected total energy values:

  The following output summarizes some interesting total energy values
  at the end of a run (AFTER all relaxation, molecular dynamics, etc.).

  | Total energy of the DFT / Hartree-Fock s.c.f. calculation      :          -2169.260984436 eV
  | Final zero-broadening corrected energy (caution - metals only) :          -2169.260984436 eV
  | Total energy after non-SC SOC correction (DO NOT USE)          :          -2169.260998109 eV
  | For reference only, the value of 1 Hartree used in FHI-aims is :             27.211384500 eV
  | For reference only, the overall average (free atom contribution
  | + realspace contribution) of the electrostatic potential after
  | s.c.f. convergence is                                          :             -0.431132839 eV

  Before relying on these values, please be sure to understand exactly which
  total energy value is referred to by a given number. Different objects may
  all carry the same name 'total energy'. Definitions:

  Total energy of the DFT / Hartree-Fock s.c.f. calculation:
  | Note that this energy does not include ANY quantities calculated after the
  | s.c.f. cycle, in particular not ANY RPA, MP2, etc. many-body perturbation terms.

  Final zero-broadening corrected energy:
  | For metallic systems only, a broadening of the occupation numbers at the Fermi
  | level can be extrapolated back to zero broadening by an electron-gas inspired
  | formula. For all systems that are not real metals, this value can be
  | meaningless and should be avoided.

------------------------------------------------------------------------------
  Methods described in the following list of references were used in this FHI-aims run.
  If you publish the results, please make sure to cite these reference if they apply.
  FHI-aims is an academic code, and for our developers (often, Ph.D. students
  and postdocs), scientific credit in the community is essential.
  Thank you for helping us!

  For any use of FHI-aims, please cite:

    Volker Blum, Ralf Gehrke, Felix Hanke, Paula Havu, Ville Havu,
    Xinguo Ren, Karsten Reuter, and Matthias Scheffler
    'Ab initio molecular simulations with numeric atom-centered orbitals'
    Computer Physics Communications 180, 2175-2196 (2009)
    http://dx.doi.org/10.1016/j.cpc.2009.06.022


  The provided symmetry information was generated with SPGlib:

    Atsushi Togo, Yusuke Seto, Dimitar Pashov
    SPGlib 1.7.3 obtained from http://spglib.sourceforge.net
    Copyright (C) 2008 Atsushi Togo


  For second-variational spin-orbit coupling used in your run, please cite:

    William P. Huhn and Volker Blum,
    'One-hundred-three compound band-structure benchmark of post-self-consistent'
    'spin-orbit coupling treatments in density functional theory'
    Phys. Rev. Materials 1, 033803 (2017).


  The ELSI infrastructure was used in your run to solve the Kohn-Sham electronic structure.
  Please check out http://elsi-interchange.org to learn more.
  If scalability is important for your project, please acknowledge ELSI by citing:

    V. W-z. Yu, F. Corsetti, A. Garcia, W. P. Huhn, M. Jacquelin, W. Jia,
    B. Lange, L. Lin, J. Lu, W. Mi, A. Seifitokaldani, A. Vazquez-Mayagoitia,
    C. Yang, H. Yang, and V. Blum
    'ELSI: A unified software interface for Kohn-Sham electronic structure solvers'
    Computer Physics Communications 222, 267-285 (2018).
    http://dx.doi.org/10.1016/j.cpc.2017.09.007


  For the real-space grid partitioning and parallelization used in this calculation, please cite:

    Ville Havu, Volker Blum, Paula Havu, and Matthias Scheffler,
    'Efficient O(N) integration for all-electron electronic structure calculation'
    'using numerically tabulated basis functions'
    Journal of Computational Physics 228, 8367-8379 (2009).
    http://dx.doi.org/10.1016/j.jcp.2009.08.008

  Of course, there are many other important community references, e.g., those cited in the
  above references. Our list is limited to references that describe implementations in the
  FHI-aims code. The reason is purely practical (length of this list) - please credit others as well.

------------------------------------------------------------
          Leaving FHI-aims.
          Date     :  20201111, Time     :  151212.177

          Computational steps:
          | Number of self-consistency cycles          :           11
          | Number of SCF (re)initializations          :            1

          Detailed time accounting                     :  max(cpu_time)    wall_clock(cpu1)
          | Total time                                 :        4.578 s           4.671 s
          | Preparation time                           :        0.125 s           0.121 s
          | Boundary condition initalization           :        0.344 s           0.324 s
          | Grid partitioning                          :        0.000 s           0.017 s
          | Preloading free-atom quantities on grid    :        0.047 s           0.034 s
          | Free-atom superposition energy             :        0.016 s           0.006 s
          | Total time for integrations                :        0.641 s           0.633 s
          | Total time for solution of K.-S. equations :        0.016 s           0.018 s
          | Total time for density update              :        0.953 s           0.940 s
          | Total time for mixing & preconditioning    :        0.188 s           0.218 s
          | Total time for Hartree multipole update    :        0.031 s           0.002 s
          | Total time for Hartree multipole sum       :        0.953 s           0.977 s
          | Total time for total energy evaluation     :        0.000 s           0.003 s
          | Total time for scaled ZORA corrections     :        0.000 s           0.000 s
          | Total time for perturbative SOC            :        0.297 s           0.303 s
          | Total time for band structures, DOS        :        0.953 s           0.974 s
          | Total time for Mulliken analysis           :        0.031 s           0.034 s

          Partial memory accounting:
          | Residual value for overall tracked memory usage across tasks:    -3.404297 MB (should be 0.000000 MB)
          |
          | Largest tracked array allocation:
          |   Minimum:        0.935 MB (hamiltonian_shell on task 4)
          |   Maximum:        1.061 MB (hamiltonian_shell on task 3)
          |   Average:        1.012 MB
          |
          | Because the residual tracked memory usage was not zero, the peak value for overall
          | tracked memory usage was not output, as it is probably incorrect.  This is likely due
          | to a missing aims_deallocate statement in the source code, which should be otherwise
          | harmless.
          |
          Note:  These values currently only include a subset of arrays which are explicitly tracked.
          The "true" memory usage will be greater.

          Have a nice day.
------------------------------------------------------------
