------------------------------------------------------------
          Invoking FHI-aims ...

          When using FHI-aims, please cite the following reference:

          Volker Blum, Ralf Gehrke, Felix Hanke, Paula Havu,
          Ville Havu, Xinguo Ren, Karsten Reuter, and Matthias Scheffler,
          'Ab Initio Molecular Simulations with Numeric Atom-Centered Orbitals',
          Computer Physics Communications 180, 2175-2196 (2009)

          For any questions about FHI-aims, please visit the aimsclub website
          with its forums and wiki. Contributions to both the forums and the
          wiki are warmly encouraged - they are for you, and everyone is welcome there.

------------------------------------------------------------



  Date     :  20200403, Time     :  071905.803
  Time zero on CPU 1             :   0.115450000000000E+00  s.
  Internal wall clock time zero  :           355130345.803  s.

  FHI-aims created a unique identifier for this run for later identification
  aims_uuid : 724F688C-8262-4828-A4FB-C528515BEAD0

  Build configuration of the current instance of FHI-aims
  -------------------------------------------------------
  FHI-aims version      : 200112
  Commit number         : 23daeca3f
  CMake host system     : Linux-3.10.0-693.21.1.el7.x86_64
  CMake version         : 3.13.3
  Fortran compiler      : /sw/installed/impi/2018.4.274-iccifort-2019.1.144-GCC-8.2.0-2.31.1/bin64/mpiifort (Intel) version 19.0.0.20181018
  Fortran compiler flags: -O3 -ip -fp-model precise
  C compiler            : /sw/installed/impi/2018.4.274-iccifort-2019.1.144-GCC-8.2.0-2.31.1/bin64/mpiicc (Intel) version 19.0.0.20181018
  C compiler flags      : -O3 -ip -fp-model precise
  Architecture          :
  Using MPI
  Using Scalapack
  Using C files
  Using LibXC
  Using SPGlib
  Using i-PI
  Using RLSY
  Linking against: /sw/installed/imkl/2019.1.144-iimpi-2019a/mkl/lib/intel64/libmkl_intel_lp64.so
                   /sw/installed/imkl/2019.1.144-iimpi-2019a/mkl/lib/intel64/libmkl_sequential.so
                   /sw/installed/imkl/2019.1.144-iimpi-2019a/mkl/lib/intel64/libmkl_core.so
                   /sw/installed/imkl/2019.1.144-iimpi-2019a/mkl/lib/intel64/libmkl_blacs_intelmpi_lp64.so
                   /sw/installed/imkl/2019.1.144-iimpi-2019a/mkl/lib/intel64/libmkl_scalapack_lp64.so

  Using       24 parallel tasks.
  Task        0 on host taurusi6046.taurus.hrsk.tu-dresden.de reporting.
  Task        1 on host taurusi6046.taurus.hrsk.tu-dresden.de reporting.
  Task        2 on host taurusi6046.taurus.hrsk.tu-dresden.de reporting.
  Task        3 on host taurusi6046.taurus.hrsk.tu-dresden.de reporting.
  Task        4 on host taurusi6046.taurus.hrsk.tu-dresden.de reporting.
  Task        5 on host taurusi6046.taurus.hrsk.tu-dresden.de reporting.
  Task        6 on host taurusi6046.taurus.hrsk.tu-dresden.de reporting.
  Task        7 on host taurusi6046.taurus.hrsk.tu-dresden.de reporting.
  Task        8 on host taurusi6046.taurus.hrsk.tu-dresden.de reporting.
  Task        9 on host taurusi6046.taurus.hrsk.tu-dresden.de reporting.
  Task       10 on host taurusi6046.taurus.hrsk.tu-dresden.de reporting.
  Task       11 on host taurusi6046.taurus.hrsk.tu-dresden.de reporting.
  Task       12 on host taurusi6046.taurus.hrsk.tu-dresden.de reporting.
  Task       13 on host taurusi6046.taurus.hrsk.tu-dresden.de reporting.
  Task       14 on host taurusi6046.taurus.hrsk.tu-dresden.de reporting.
  Task       15 on host taurusi6046.taurus.hrsk.tu-dresden.de reporting.
  Task       16 on host taurusi6046.taurus.hrsk.tu-dresden.de reporting.
  Task       17 on host taurusi6046.taurus.hrsk.tu-dresden.de reporting.
  Task       18 on host taurusi6046.taurus.hrsk.tu-dresden.de reporting.
  Task       19 on host taurusi6046.taurus.hrsk.tu-dresden.de reporting.
  Task       20 on host taurusi6046.taurus.hrsk.tu-dresden.de reporting.
  Task       21 on host taurusi6046.taurus.hrsk.tu-dresden.de reporting.
  Task       22 on host taurusi6046.taurus.hrsk.tu-dresden.de reporting.
  Task       23 on host taurusi6046.taurus.hrsk.tu-dresden.de reporting.

  Performing system and environment tests:
  | Environment variable OMP_NUM_THREADS correctly set to 1.
  | Maximum stacksize for task 0: unlimited
  | Maximum stacksize for task 1: unlimited
  | Maximum stacksize for task 2: unlimited
  | Maximum stacksize for task 3: unlimited
  | Maximum stacksize for task 4: unlimited
  | Maximum stacksize for task 5: unlimited
  | Maximum stacksize for task 6: unlimited
  | Maximum stacksize for task 7: unlimited
  | Maximum stacksize for task 8: unlimited
  | Maximum stacksize for task 9: unlimited
  | Maximum stacksize for task 10: unlimited
  | Maximum stacksize for task 11: unlimited
  | Maximum stacksize for task 12: unlimited
  | Maximum stacksize for task 13: unlimited
  | Maximum stacksize for task 14: unlimited
  | Maximum stacksize for task 15: unlimited
  | Maximum stacksize for task 16: unlimited
  | Maximum stacksize for task 17: unlimited
  | Maximum stacksize for task 18: unlimited
  | Maximum stacksize for task 19: unlimited
  | Maximum stacksize for task 20: unlimited
  | Maximum stacksize for task 21: unlimited
  | Maximum stacksize for task 22: unlimited
  | Maximum stacksize for task 23: unlimited
  | Current stacksize for task 0: unlimited
  | Current stacksize for task 1: unlimited
  | Current stacksize for task 2: unlimited
  | Current stacksize for task 3: unlimited
  | Current stacksize for task 4: unlimited
  | Current stacksize for task 5: unlimited
  | Current stacksize for task 6: unlimited
  | Current stacksize for task 7: unlimited
  | Current stacksize for task 8: unlimited
  | Current stacksize for task 9: unlimited
  | Current stacksize for task 10: unlimited
  | Current stacksize for task 11: unlimited
  | Current stacksize for task 12: unlimited
  | Current stacksize for task 13: unlimited
  | Current stacksize for task 14: unlimited
  | Current stacksize for task 15: unlimited
  | Current stacksize for task 16: unlimited
  | Current stacksize for task 17: unlimited
  | Current stacksize for task 18: unlimited
  | Current stacksize for task 19: unlimited
  | Current stacksize for task 20: unlimited
  | Current stacksize for task 21: unlimited
  | Current stacksize for task 22: unlimited
  | Current stacksize for task 23: unlimited
  | Checking for scalapack...
  | Testing pdtran()...
  | All pdtran() tests passed.

  Obtaining array dimensions for all initial allocations:
  
  -----------------------------------------------------------------------
  Parsing control.in (first pass over file, find array dimensions only).
  The contents of control.in will be repeated verbatim below
  unless switched off by setting 'verbatim_writeout .false.' .
  in the first line of control.in .
  -----------------------------------------------------------------------
  
  #===============================================================================
  # FHI-aims file: ./control.in
  # Created using the Atomic Simulation Environment (ASE)
  # Thu Apr  2 11:29:47 2020
  #===============================================================================
  xc                                 pbe
  # include_spin_orbit
  # vdw_correction_hirshfeld
  many_body_dispersion_nl 	 beta=0.81
  spin                               none
  k_grid 	 	 22 22 22
  relativistic                       atomic_zora scalar
  ### SCF settings
  adjust_scf 	 always 	 3
  # frozen_core_scf 	 .true.
  # charge_mix_param  0.05
  # occupation_type 	 gaussian 	 0.01
  # sc_accuracy_eev   1E-3 	 	 # sum of eigenvalues convergence
  # sc_accuracy_etot  1E-6 	 	 # total energy convergence
  # sc_accuracy_rho   1E-3 	 	 # electron density convergence
  # elsi_restart 	 read_and_write 	 1000
  ### geometry optimisation section
  relax_geometry 	 bfgs 	 1E-2
  relax_unit_cell 	 full
  #===============================================================================
  
  ################################################################################
  #
  #  FHI-aims code project
  # Volker Blum, Fritz Haber Institute Berlin, 2009
  #
  #  Suggested "tight" defaults for Pt atom (to be pasted into control.in file)
  #
  ################################################################################
    species        Pt
  #     global species definitions
      nucleus             78
      mass                195.084
  #
      l_hartree           6
  #
      cut_pot             4.0  2.0  1.0
      basis_dep_cutoff    1e-4
  #
      radial_base         72 7.0
      radial_multiplier   2
      angular_grids specified
        division   0.3279   50
        division   0.7476  110
        division   1.0850  194
        division   1.2652  302
        division   1.6291  434
  #      division   1.9966  590
  #      division   2.1207  770
  #      division   2.1534  974
  #      division   2.7454 1202
  #      outer_grid    974
        outer_grid  434
  ################################################################################
  #
  #  Definition of "minimal" basis
  #
  ################################################################################
  #     valence basis states
      valence      6  s   1.
      valence      5  p   6.
      valence      5  d   9.
      valence      4  f  14.
  #     ion occupancy
      ion_occ     6  s   0.
      ion_occ     5  p   6.
      ion_occ     5  d   8.
      ion_occ     4  f   14.
  ################################################################################
  #
  #  Suggested additional basis functions. For production calculations,
  #  uncomment them one after another (the most important basis functions are
  #  listed first).
  #
  #  Constructed for dimers: 2.00, 2.275, 2.75, 3.75 AA
  #
  ################################################################################
  #  "First tier" - max. impr. -193.66  meV, min. impr. -18.25 meV
       hydro 4 f 7.4
       ionic 6 p auto
       hydro 5 g 9.8
       ionic 6 s auto
       hydro 3 d 2.6
  #  "Second tier" - max. impr. -10.25  meV, min. impr. -0.56 meV
  #     hydro 6 h 14
  #     hydro 5 f 14
  #     hydro 4 d 4
  #     hydro 3 p 3.3
  #     hydro 5 g 16.4
  #     hydro 1 s 0.5
  #  "Third tier" - max. impr. -0.72  meV, min. impr. -0.18 meV
  #     hydro 5 f 9
  #     ionic 5 d auto
  #     hydro 6 h 16.4
  #     hydro 5 g 12.4
  #     hydro 5 g 34
  #     hydro 5 s 13.6
  #     hydro 5 p 10.4
  #  Further functions: ################################################################################
  #
  #  FHI-aims code project
  # Volker Blum, Fritz Haber Institute Berlin, 2009
  #
  #  Suggested "tight" defaults for Se atom (to be pasted into control.in file)
  #
  ################################################################################
    species        Se
  #     global species definitions
      nucleus             34
      mass                78.96
  #
      l_hartree           6
  #
      cut_pot             4.0          2.0  1.0
      basis_dep_cutoff    1e-4
  #
      radial_base         55 7.0
      radial_multiplier   2
      angular_grids       specified
        division   0.0830  110
        division   0.1357  194
        division   0.7377  302
        division   0.8610  434
  #      division   0.9640  590
  #      division   1.0773  770
  #      division   2.5539  974
  #      outer_grid  974
        outer_grid  434
  ################################################################################
  #
  #  Definition of "minimal" basis
  #
  ################################################################################
  #     valence basis states
      valence      4  s   2.
      valence      4  p   4.
      valence      3  d  10.
  #     ion occupancy
      ion_occ      4  s   1.
      ion_occ      4  p   3.
      ion_occ      3  d  10.
  ################################################################################
  #
  #  Suggested additional basis functions. For production calculations,
  #  uncomment them one after another (the most important basis functions are
  #  listed first).
  #
  #  Constructed for dimers: 1.85 A, 2.15 A, 2.50 A, 3.00 A, 4.00 A
  #
  ################################################################################
  #  "First tier" - improvements: -336.21 meV to -36.85 meV
       hydro 3 d 4.3
       hydro 2 p 1.6
       hydro 4 f 7.2
       ionic 4 s auto
  #  "Second tier" - improvements: -14.39 meV to -1.49 meV
  #     hydro 5 g 10.4
  #     hydro 4 p 4.5
  #     hydro 4 d 6.2
  #     hydro 4 f 11.2
  #     hydro 1 s 0.65
  #     hydro 6 h 15.2
  #  "Third tier" - improvements: -0.46 meV and below
  #     hydro 5 g 14.4
  #     ionic 4 d auto
  #     hydro 4 f 22.4
  #     hydro 5 f 7.4
  #     hydro 5 p 8
  #     hydro 5 s 9.4
  #  "Fourth tier" - improvements: -0.12 meV and below
  #     hydro 5 d 11.6
  #     hydro 6 h 18
  #     hydro 4 p 4
  #     hydro 5 f 16
  #     hydro 4 s 3.9
  #
  #
  
  -----------------------------------------------------------------------
  Completed first pass over input file control.in .
  -----------------------------------------------------------------------
  
  
  -----------------------------------------------------------------------
  Parsing geometry.in (first pass over file, find array dimensions only).
  The contents of geometry.in will be repeated verbatim below
  unless switched off by setting 'verbatim_writeout .false.' .
  in the first line of geometry.in .
  -----------------------------------------------------------------------
  
  #=======================================================
  # FHI-aims file: geometry.in
  # Created using the Atomic Simulation Environment (ASE)
  # Thu Apr  2 11:29:47 2020
  #=======================================================
  lattice_vector 3.7869355100000002 0.0000000000000000 0.0000000000000000
  lattice_vector -1.8934677600000001 3.2795823600000000 0.0000000000000000
  lattice_vector 0.0000000000000000 0.0000000000000000 4.8635549500000002
  atom_frac 0.0000000000000000 0.0000000000000000 0.0000000000000000 Pt
  atom_frac 0.3333333342135525 0.6666666666666666 0.2685420692121511 Se
  atom_frac 0.6666666684271050 0.3333333333333333 0.7314579307878489 Se
  symmetry_n_params 11 2 9
  symmetry_params a1 c3 x0 x1 x2 x3 x4 x5 x6 x7 x8
  symmetry_lv a1 , 0 , 0
  symmetry_lv -a1/2 , sqrt(3.0)*a1/2 , 0
  symmetry_lv 0 , 0 , c3
  symmetry_frac x0 , x1 , x2
  symmetry_frac x3 , x4 , x5
  symmetry_frac x6 , x7 , x8
  
  -----------------------------------------------------------------------
  Completed first pass over input file geometry.in .
  -----------------------------------------------------------------------
  

  Basic array size parameters:
  | Number of species                 :        2
  | Number of atoms                   :        3
  | Number of lattice vectors         :        3
  | Max. basis fn. angular momentum   :        4
  | Max. atomic/ionic basis occupied n:        6
  | Max. number of basis fn. types    :        3
  | Max. radial fns per species/type  :       14
  | Max. logarithmic grid size        :     1487
  | Max. radial integration grid size :      145
  | Max. angular integration grid size:      434
  | Max. angular grid division number :        8
  | Radial grid for Hartree potential :     1487
  | Number of spin channels           :        1

------------------------------------------------------------
          Reading file control.in.
------------------------------------------------------------
  XC: Using PBE gradient-corrected functionals.
  Using libMBD for calculating MBD and TS energies
  Spin treatment: No spin polarisation.
  Found k-point grid:        22        22        22
  Scalar relativistic treatment of kinetic energy: on-site free-atom approximation to ZORA.
  S.C.F. convergence parameters will be adjusted in iteration number     3 of each new s.c.f. cycle.
  Geometry relaxation: Modified BFGS - TRM (trust radius method) for lattice optimization.
  Convergence accuracy for geometry relaxation: Maximum force <   0.100000E-01 eV/A.
 
  Reading configuration options for species Pt                  .
  | Found nuclear charge :  78.0000
  | Found atomic mass :    195.084000000000      amu
  | Found l_max for Hartree potential  :   6
  | Found cutoff potl. onset [A], width [A], scale factor :    4.00000    2.00000    1.00000
  | Threshold for basis-dependent cutoff potential is   0.100000E-03
  | Found data for basic radial integration grid :    72 points, outermost radius =    7.000 A
  | Found multiplier for basic radial grid :   2
  | Found angular grid specification: user-specified.
  | Specified grid contains     6 separate shells.
  | Check grid settings after all constraints further below.
  | Found free-atom valence shell :  6 s   1.000
  | Found free-atom valence shell :  5 p   6.000
  | Found free-atom valence shell :  5 d   9.000
  | Found free-atom valence shell :  4 f  14.000
  | Found free-ion valence shell :  6 s   0.000
  | Found free-ion valence shell :  5 p   6.000
  | Found free-ion valence shell :  5 d   8.000
  | Found free-ion valence shell :  4 f  14.000
  | Found hydrogenic basis function :  4 f   7.400
  | Found ionic basis function :  6 p , default cutoff radius.
  | Found hydrogenic basis function :  5 g   9.800
  | Found ionic basis function :  6 s , default cutoff radius.
  | Found hydrogenic basis function :  3 d   2.600
  Species Pt                  : Missing cutoff potential type.
  Defaulting to exp(1/x)/(1-x)^2 type cutoff potential.
  Species Pt: No 'logarithmic' tag. Using default grid for free atom:
  | Default logarithmic grid data [bohr] : 0.1000E-03 0.1000E+03 0.1012E+01
  | Will include ionic basis functions of  2.0-fold positive Pt                   ion.
  Species Pt: On-site basis accuracy parameter (for Gram-Schmidt orthonormalisation) not specified.
  Using default value basis_acc =  0.1000000E-03.
  Species Pt                  : Using default innermost maximum threshold i_radial=  2 for radial functions.
  Species Pt                  : Default cutoff onset for free atom density etc. : 0.40000000E+01 AA.
  Species Pt                  : Basic radial grid will be enhanced according to radial_multiplier =   2, to contain   145 grid points.
 
  Reading configuration options for species Se                  .
  | Found nuclear charge :  34.0000
  | Found atomic mass :    78.9600000000000      amu
  | Found l_max for Hartree potential  :   6
  | Found cutoff potl. onset [A], width [A], scale factor :    4.00000    2.00000    1.00000
  | Threshold for basis-dependent cutoff potential is   0.100000E-03
  | Found data for basic radial integration grid :    55 points, outermost radius =    7.000 A
  | Found multiplier for basic radial grid :   2
  | Found angular grid specification: user-specified.
  | Specified grid contains     5 separate shells.
  | Check grid settings after all constraints further below.
  | Found free-atom valence shell :  4 s   2.000
  | Found free-atom valence shell :  4 p   4.000
  | Found free-atom valence shell :  3 d  10.000
  | Found free-ion valence shell :  4 s   1.000
  | Found free-ion valence shell :  4 p   3.000
  | Found free-ion valence shell :  3 d  10.000
  | Found hydrogenic basis function :  3 d   4.300
  | Found hydrogenic basis function :  2 p   1.600
  | Found hydrogenic basis function :  4 f   7.200
  | Found ionic basis function :  4 s , default cutoff radius.
  Species Se                  : Missing cutoff potential type.
  Defaulting to exp(1/x)/(1-x)^2 type cutoff potential.
  Species Se: No 'logarithmic' tag. Using default grid for free atom:
  | Default logarithmic grid data [bohr] : 0.1000E-03 0.1000E+03 0.1012E+01
  | Will include ionic basis functions of  2.0-fold positive Se                   ion.
  Species Se: On-site basis accuracy parameter (for Gram-Schmidt orthonormalisation) not specified.
  Using default value basis_acc =  0.1000000E-03.
  Species Se                  : Using default innermost maximum threshold i_radial=  2 for radial functions.
  Species Se                  : Default cutoff onset for free atom density etc. : 0.40000000E+01 AA.
  Species Se                  : Basic radial grid will be enhanced according to radial_multiplier =   2, to contain   111 grid points.
 
  Finished reading input file 'control.in'. Consistency checks are next.
 
  MPI_IN_PLACE appears to work with this MPI implementation.
  | Keeping use_mpi_in_place .true. (see manual).
  Target number of points in a grid batch is not set. Defaulting to  100
  Method for grid partitioning is not set. Defaulting to parallel hash+maxmin partitioning.
  Batch size limit is not set. Defaulting to    200
  By default, will store active basis functions for each batch.
  If in need of memory, prune_basis_once .false. can be used to disable this option.
  communication_type for Hartree potential was not specified.
  Defaulting to calc_hartree .
  Defaulting to Pulay charge density mixer.
  Pulay mixer: Number of relevant iterations not set.
  Defaulting to    8 iterations.
  Pulay mixer: Number of initial linear mixing iterations not set.
  Defaulting to    0 iterations.
  Work space size for distributed Hartree potential not set.
  Defaulting to   0.200000E+03 MB.
  Mixing parameter for charge density mixing has not been set.
  Using default: charge_mix_param =     0.0500.
  The mixing parameter will be adjusted in iteration number     3 of each s.c.f. cycle (i.e., each geometry step).
  Algorithm-dependent basis array size parameters:
  | n_max_pulay                         :        8
  Maximum number of self-consistency iterations not provided.
  Presetting  1000 iterations.
  Presetting      1001 iterations before the initial mixing cycle
  is restarted anyway using the sc_init_iter criterion / keyword.
  Presetting a factor      1.000 between actual scf density residual
  and density convergence criterion sc_accuracy_rho below which sc_init_iter
  takes no effect.
 * No s.c.f. convergence criteria (sc_accuracy_*) were provided in control.in.
 * The run will proceed with a reasonable default guess, but please check whether.
 * the s.c.f. cycles seem to take too much or too little time.
  No maximum number of relaxation steps, defaulting to     1000
  Default initial Hessian is Lindh matrix (thres = 15.00) plus  0.200000E+01 eV/A^2 times unity.
  No maximum energy tolerance for TRM/BFGS moves, defaulting to   0.100000E-02
  Maximum energy tolerance by which TRM/BFGS trajectory may increase over multiple steps:   0.300000E-02
  No harmonic length scale. Defaulting to   0.250000E-01 A.
  No trust radius initializer. Defaulting to   0.200000E+00 A.
  Unit cell relaxation: Unit cell will be relaxed fully.
  Unit cell relaxation: Analytical stress will be used.
  Analytical stress will be computed.
  Analytical stress calculation: Only the upper triangle is calculated.
                                 Final output is symmetrized.
  Analytical stress calculation: scf convergence accuracy of stress not set.
                                 Analytical stress self-consistency will not be checked explicitly.
                                 Be sure to set other criteria like sc_accuracy_rho tight enough.
 * Notice: The s.c.f. convergence criterion sc_accuracy_rho was not provided.
 * We used to stop in this case, and ask the user to provide reasonable
 * scf convergence criteria. However, this led some users to employ criteria
 * that led to extremely long run times, e.g., for simple relaxation.
 * We now preset a default value for sc_accuracy_rho if it is not set.
 * You may still wish to check if this setting is too tight or too loose for your needs.
 * Based on n_atoms, FHI-aims chose sc_accuracy_rho =  0.100000E-05 .
  Force calculation: scf convergence accuracy of forces not set.
  Defaulting to 'sc_accuracy_forces not_checked'.
  Handling of forces: Unphysical translation and rotation will be removed from forces.
  No accuracy limit for integral partition fn. given. Defaulting to  0.1000E-14.
  No threshold value for u(r) in integrations given. Defaulting to  0.1000E-05.
  No occupation type (smearing scheme) given. Defaulting to Gaussian broadening, width =  0.1000E-01 eV.
  The width will be adjusted in iteration number     3 of each s.c.f. cycle (i.e., each geometry step).
  S.C.F. convergence parameters will be adjusted in iteration number     3 of the first full s.c.f. cycle only.
  No accuracy for occupation numbers given. Defaulting to  0.1000E-12.
  No threshold value for occupation numbers given. Defaulting to  0.0000E+00.
  No accuracy for fermi level given. Defaulting to  0.1000E-19.
  Maximum # of iterations to find E_F not set. Defaulting to  200.
  Preferred method for the eigenvalue solver ('KS_method') not specified in 'control.in'.
  Defaulting to serial version, LAPACK (via ELSI), since more k-points than CPUs available.
  Will not use alltoall communication since running on < 1024 CPUs.
  Threshold for basis singularities not set.
  Default threshold for basis singularities:  0.1000E-04
  partition_type (choice of integration weights) for integrals was not specified.
  | Using a version of the partition function of Stratmann and coworkers ('stratmann_sparse').
  | At each grid point, the set of atoms used to build the partition table is smoothly restricted to
  | only those atoms whose free-atom density would be non-zero at that grid point.
  Partitioning for Hartree potential was not defined. Using partition_type for integrals.
  | Adjusted default value of keyword multip_moments_threshold to:       0.10000000E-11
  | This value may affect high angular momentum components of the Hartree potential in periodic systems.
  Angular momentum expansion for Kerker preconditioner not set explicitly.
  | Using default value of   0
  No explicit requirement for turning off preconditioner.
  | By default, it will be turned off when the charge convergence reaches
  | sc_accuracy_rho  =   0.100000E-05
  No special mixing parameter while Kerker preconditioner is on.
  Using default: charge_mix_param =     0.0500.
  No q(lm)/r^(l+1) cutoff set for long-range Hartree potential.
  | Using default value of  0.100000E-09 .
  | Verify using the multipole_threshold keyword.
  Defaulting to new monopole extrapolation.
  Density update method: automatic selection selected.
  Using density matrix based charge density update.
  Using density matrix based charge density update.
  Using packed matrix style: index .
  Geometry relaxation: A file "geometry.in.next_step" is written out by default after each step.
  | This file contains the geometry of the current relaxation step as well as
  | the current Hessian matrix needed to restart the relaxation algorithm.
  | If you do not want part or all of this information, use the keywords
  | "write_restart_geometry" or "hessian_to_restart_geometry" to switch the output off.
  Defaulting to use time-reversal symmetry for k-point grid.
  Charge integration errors on the 3D integration grid will be compensated
  by explicit normalization and distribution of residual charges.
  Use the "compensate_multipole_errors" flag to change this behaviour.
------------------------------------------------------------


------------------------------------------------------------
          Reading geometry description geometry.in.
------------------------------------------------------------
  Input structure read successfully.
  The structure contains        3 atoms,  and a total of        146.000 electrons.

  Input geometry:
  | Unit cell:
  |        3.78693551        0.00000000        0.00000000
  |       -1.89346776        3.27958236        0.00000000
  |        0.00000000        0.00000000        4.86355495
  | Atomic structure:
  |       Atom                x [A]            y [A]            z [A]
  |    1: Species Pt            0.00000000        0.00000000        0.00000000
  |    2: Species Se            0.00000000        2.18638824        1.30606911
  |    3: Species Se            1.89346776        1.09319412        3.55748584

  Lattice parameters for 3D lattice (in Angstroms) :     3.786936    3.786936    4.863555
  Angle(s) between unit vectors (in degrees)       :    90.000000   90.000000  120.000000

  | The smallest distance between any two atoms is         2.54678425 AA.
  | The first atom of this pair is atom number                      1 .
  | The second atom of this pair is atom number                     3 .
  | Wigner-Seitz cell of the first atom image           0     0     0 .
  | (The Wigner-Seitz cell of the second atom is 0 0 0  by definition.)

  Symmetry information by spglib:
  | Precision set to  0.1E-04
  | Number of Operations  : 12
  | Space group           : 164
  | International         : P-3m1
  | Schoenflies           : D3d^3

  Quantities derived from the lattice vectors:
  | Reciprocal lattice vector 1:  1.659174  0.957925  0.000000
  | Reciprocal lattice vector 2: -0.000000  1.915849  0.000000
  | Reciprocal lattice vector 3:  0.000000  0.000000  1.291892
  | Unit cell volume                               :   0.604032E+02  A^3

  Range separation radius for Ewald summation (hartree_convergence_parameter):      3.89684492 bohr.

  Fractional coordinates:
                         L1                L2                L3
       atom_frac         0.00000000        0.00000000        0.00000000  Pt
       atom_frac         0.33333333        0.66666667        0.26854207  Se
       atom_frac         0.66666667        0.33333333        0.73145793  Se

  Number of empty states per atom not set in control.in - providing a guess from actual geometry.
  | Total number of empty states used during s.c.f. cycle:       20
  If you use a very high smearing, use empty_states (per atom!) in control.in to increase this value.

  Structure-dependent array size parameters: 
  | Maximum number of distinct radial functions  :       31
  | Maximum number of basis functions            :      133
  | Number of Kohn-Sham states (occupied + empty):       93
------------------------------------------------------------

------------------------------------------------------------
          Preparing all fixed parts of the calculation.
------------------------------------------------------------
  Determining machine precision:
    2.225073858507201E-308
  Setting up grids for atomic and cluster calculations.

  Creating wave function, potential, and density for free atoms.

  Species: Pt

  List of occupied orbitals and eigenvalues:
    n    l              occ      energy [Ha]    energy [eV]
    1    0           2.0000     -3153.103304    -85800.3064
    2    0           2.0000      -515.589489    -14029.9038
    3    0           2.0000      -119.501787     -3251.8091
    4    0           2.0000       -25.569766      -695.7887
    5    0           2.0000        -3.736651      -101.6795
    6    0           1.0000        -0.206416        -5.6169
    2    1           6.0000      -445.953190    -12135.0037
    3    1           6.0000       -99.656176     -2711.7825
    4    1           6.0000       -19.104871      -519.8700
    5    1           6.0000        -2.054483       -55.9053
    3    2          10.0000       -78.244476     -2129.1405
    4    2          10.0000       -11.276663      -306.8536
    5    2           9.0000        -0.224682        -6.1139
    4    3          14.0000        -2.581704       -70.2517


  Species: Se

  List of occupied orbitals and eigenvalues:
    n    l              occ      energy [Ha]    energy [eV]
    1    0           2.0000      -466.337810    -12689.6975
    2    0           2.0000       -59.202598     -1610.9847
    3    0           2.0000        -7.847116      -213.5309
    4    0           2.0000        -0.634372       -17.2621
    2    1           6.0000       -52.061107     -1416.6548
    3    1           6.0000        -5.620941      -152.9536
    4    1           4.0000        -0.238469        -6.4891
    3    2          10.0000        -1.951949       -53.1152

  Creating fixed part of basis set: Ionic, confined, hydrogenic.
 
  Pt                   ion:

  List of free ionic orbitals and eigenvalues:
    n    l      energy [Ha]    energy [eV]
    1    0     -3153.944388    -85823.1934
    2    0      -516.374474    -14051.2643
    3    0      -120.278274     -3272.9384
    4    0       -26.344243      -716.8633
    5    0        -4.507613      -122.6584
    2    1      -446.736765    -12156.3259
    3    1      -100.432254     -2732.9007
    4    1       -19.879176      -540.9399
    5    1        -2.820901       -76.7606
    3    2       -79.020090     -2150.2461
    4    2       -12.050716      -327.9167
    5    2        -0.950990       -25.8778
    4    3        -3.355307       -91.3026


  List of ionic basis orbitals and eigenvalues:
    n    l      energy [Ha]    energy [eV]    outer radius [A]
    6    1        -0.526730       -14.3331       5.414053
    6    0        -0.812719       -22.1152       5.155675

 
  Pt                   hydrogenic:
 
  List of hydrogenic basis orbitals: 
    n    l      effective z      eigenvalue [eV]  inner max. [A]     outer max. [A]     outer radius [A]   
    4    3         7.400000       -46.5653           1.146169           1.146169           4.909628
    5    4         9.800000       -52.2674           1.343596           1.343596           5.155675
    3    2         2.600000       -10.1361           1.823895           1.823895           5.480646
 
 
  Se                   ion:

  List of free ionic orbitals and eigenvalues:
    n    l      energy [Ha]    energy [eV]
    1    0      -467.261007    -12714.8189
    2    0       -60.104893     -1635.5374
    3    0        -8.743714      -237.9286
    4    0        -1.414053       -38.4783
    2    1       -52.964156     -1441.2280
    3    1        -6.516916      -177.3343
    4    1        -0.961869       -26.1738
    3    2        -2.844511       -77.4031


  List of ionic basis orbitals and eigenvalues:
    n    l      energy [Ha]    energy [eV]    outer radius [A]
    4    0        -1.414046       -38.4782       4.083166

 
  Se                   hydrogenic:
 
  List of hydrogenic basis orbitals: 
    n    l      effective z      eigenvalue [eV]  inner max. [A]     outer max. [A]     outer radius [A]   
    3    2         4.300000       -27.9518           1.103845           1.103845           5.278265
    2    1         1.600000        -8.6828           1.326010           1.326010           5.475439
    4    3         7.200000       -44.0822           1.173422           1.173422           4.965294
 

  Adding cutoff potential to free-atom effective potential.
  Creating atomic-like basis functions for current effective potential.

  Species Pt                  :

  List of atomic basis orbitals and eigenvalues:
    n    l      energy [Ha]    energy [eV]    outer radius [A]
    1    0     -3153.103304    -85800.3064       0.122365
    2    0      -515.589489    -14029.9038       0.321431
    3    0      -119.501787     -3251.8091       0.669333
    4    0       -25.569766      -695.7887       1.393787
    5    0        -3.736651      -101.6795       3.402290
    6    0        -0.206416        -5.6169       5.414053
    2    1      -445.953190    -12135.0037       0.333438
    3    1       -99.656176     -2711.7825       0.720273
    4    1       -19.104871      -519.8700       1.575030
    5    1        -2.054483       -55.9053       4.398103
    3    2       -78.244476     -2129.1405       0.765673
    4    2       -11.276663      -306.8536       1.915300
    5    2        -0.224682        -6.1139       5.348269
    4    3        -2.581704       -70.2517       3.402290


  Species Se                  :

  List of atomic basis orbitals and eigenvalues:
    n    l      energy [Ha]    energy [eV]    outer radius [A]
    1    0      -466.337810    -12689.6975       0.309561
    2    0       -59.202598     -1610.9847       0.885812
    3    0        -7.847116      -213.5309       2.355489
    4    0        -0.634372       -17.2621       5.214131
    2    1       -52.061107     -1416.6548       0.907737
    3    1        -5.620941      -152.9536       2.694529
    4    1        -0.238469        -6.4891       5.408909
    3    2        -1.951949       -53.1152       4.083166

  Assembling full basis from fixed parts.
  | Species Pt :   atomic orbital   1 s accepted.
  | Species Pt :   atomic orbital   2 s accepted.
  | Species Pt :   atomic orbital   3 s accepted.
  | Species Pt :   atomic orbital   4 s accepted.
  | Species Pt :   atomic orbital   5 s accepted.
  | Species Pt :    ionic orbital   6 s accepted.
  | Species Pt :   atomic orbital   6 s accepted.
  | Species Pt :   atomic orbital   2 p accepted.
  | Species Pt :   atomic orbital   3 p accepted.
  | Species Pt :   atomic orbital   4 p accepted.
  | Species Pt :   atomic orbital   5 p accepted.
  | Species Pt :    ionic orbital   6 p accepted.
  | Species Pt :   atomic orbital   3 d accepted.
  | Species Pt :   atomic orbital   4 d accepted.
  | Species Pt :   atomic orbital   5 d accepted.
  | Species Pt :    hydro orbital   3 d accepted.
  | Species Pt :   atomic orbital   4 f accepted.
  | Species Pt :    hydro orbital   4 f accepted.
  | Species Pt :    hydro orbital   5 g accepted.
  | Species Se :   atomic orbital   1 s accepted.
  | Species Se :   atomic orbital   2 s accepted.
  | Species Se :   atomic orbital   3 s accepted.
  | Species Se :    ionic orbital   4 s accepted.
  | Species Se :   atomic orbital   4 s accepted.
  | Species Se :   atomic orbital   2 p accepted.
  | Species Se :   atomic orbital   3 p accepted.
  | Species Se :   atomic orbital   4 p accepted.
  | Species Se :    hydro orbital   2 p accepted.
  | Species Se :   atomic orbital   3 d accepted.
  | Species Se :    hydro orbital   3 d accepted.
  | Species Se :    hydro orbital   4 f accepted.
 
  Basis size parameters after reduction:
  | Total number of radial functions:       31
  | Total number of basis functions :      133
 
  Per-task memory consumption for arrays in subroutine allocate_ext:
  |          11.805792MB.
  Testing on-site integration grid accuracy.
  |  Species  Function  <phi|h_atom|phi> (log., in eV)  <phi|h_atom|phi> (rad., in eV)
           1        1             -85800.3063919403             -85800.2856196526
           1        2             -14029.9038190300             -14029.9034024833
           1        3              -3251.8090796931              -3251.8090493723
           1        4               -695.7887467633               -695.7887380841
           1        5               -101.6794541333               -101.6794523387
           1        6                 -5.0775855766                 -5.0775852323
           1        7                  4.7711468026                  4.7712019690
           1        8             -12135.0037192377             -12135.0037104521
           1        9              -2711.7825232731              -2711.7825171064
           1       10               -519.8699987955               -519.8699936807
           1       11                -55.9053342201                -55.9053330049
           1       12                  0.5776141106                  0.5776162192
           1       13              -2129.1405232679              -2129.1405210333
           1       14               -306.8536046277               -306.8536019160
           1       15                 -6.1140333556                 -6.1140328158
           1       16                  6.1273756157                  6.1274132679
           1       17                -70.2517499686                -70.2517493411
           1       18                 21.2263775586                 21.2263774796
           1       19                 35.7069304613                 35.7069304872
           2       20             -12689.6974611609             -12689.6967666984
           2       21              -1610.9846578580              -1610.9846472470
           2       22               -213.5308789869               -213.5308777267
           2       23                -17.0464428502                -17.0464426496
           2       24                  6.7356859379                  6.7356842047
           2       25              -1416.6548010133              -1416.6548002108
           2       26               -152.9535734377               -152.9535727493
           2       27                 -6.4896265677                 -6.4896303794
           2       28                  5.2703037283                  5.2701679583
           2       29                -53.1152220964                -53.1152219035
           2       30                  7.6186674138                  7.6186665630
           2       31                 23.1072799052                 23.1072803137

  Preparing densities etc. for the partition functions (integrals / Hartree potential).

  Preparations completed.
  max(cpu_time)          :      0.664 s.
  Wall clock time (cpu1) :      0.832 s.
------------------------------------------------------------

------------------------------------------------------------
          Begin self-consistency loop: Initialization.

          Date     :  20200403, Time     :  071907.443
------------------------------------------------------------

  Initializing index lists of integration centers etc. from given atomic structure:
  Mapping all atomic coordinates to central unit cell.

  Initializing the k-points
  Using symmetry for reducing the k-points
  | k-points reduced from:    10648 to     5328
  | Number of k-points                             :      5328
  The eigenvectors in the calculations are COMPLEX.
  | K-points in task   0:       222
  | K-points in task   1:       222
  | K-points in task   2:       222
  | K-points in task   3:       222
  | K-points in task   4:       222
  | K-points in task   5:       222
  | K-points in task   6:       222
  | K-points in task   7:       222
  | K-points in task   8:       222
  | K-points in task   9:       222
  | K-points in task  10:       222
  | K-points in task  11:       222
  | K-points in task  12:       222
  | K-points in task  13:       222
  | K-points in task  14:       222
  | K-points in task  15:       222
  | K-points in task  16:       222
  | K-points in task  17:       222
  | K-points in task  18:       222
  | K-points in task  19:       222
  | K-points in task  20:       222
  | K-points in task  21:       222
  | K-points in task  22:       222
  | K-points in task  23:       222
  | Number of basis functions in the Hamiltonian integrals :      3651
  | Number of basis functions in a single unit cell        :       133
  | Number of centers in hartree potential         :       979
  | Number of centers in hartree multipole         :       577
  | Number of centers in electron density summation:       407
  | Number of centers in basis integrals           :       439
  | Number of centers in integrals                 :       161
  | Number of centers in hamiltonian               :       415
  | Consuming      14152 KiB for k_phase.
  | Number of super-cells (origin) [n_cells]                     :        1521
  | Number of super-cells (after PM_index) [n_cells]             :         170
  | Number of super-cells in hamiltonian [n_cells_in_hamiltonian]:         170
  | Size of matrix packed + index [n_hamiltonian_matrix_size] :      398661

  Initializing relaxation algorithms.
  | Estimated reciprocal-space cutoff momentum G_max:         2.49846848 bohr^-1 .
  | Reciprocal lattice points for long-range Hartree potential:     108
  Partitioning the integration grid into batches with parallel hashing+maxmin method.
  | Number of batches:     1447
  | Maximal batch size:     121
  | Minimal batch size:      51
  | Average batch size:      68.784
  | Standard deviation of batch sizes:      15.288

  Integration load balanced across    24 MPI tasks.
  Work distribution over tasks is as follows:
  Task     0 has       4152 integration points.
  Task     1 has       4185 integration points.
  Task     2 has       4145 integration points.
  Task     3 has       4132 integration points.
  Task     4 has       4188 integration points.
  Task     5 has       4145 integration points.
  Task     6 has       4148 integration points.
  Task     7 has       4148 integration points.
  Task     8 has       4152 integration points.
  Task     9 has       4143 integration points.
  Task    10 has       4146 integration points.
  Task    11 has       4187 integration points.
  Task    12 has       4114 integration points.
  Task    13 has       4110 integration points.
  Task    14 has       4154 integration points.
  Task    15 has       4135 integration points.
  Task    16 has       4137 integration points.
  Task    17 has       4141 integration points.
  Task    18 has       4151 integration points.
  Task    19 has       4196 integration points.
  Task    20 has       4123 integration points.
  Task    21 has       4113 integration points.
  Task    22 has       4147 integration points.
  Task    23 has       4138 integration points.
  Initializing partition tables, free-atom densities, potentials, etc. across the integration grid (initialize_grid_storage).
  | initialize_grid_storage: Actual outermost partition radius vs. multipole_radius_free
  | (-- VB: in principle, multipole_radius_free should be larger, hence this output)
  | Species        1: Confinement radius =              6.000000000000000 AA, multipole_radius_free =              6.043738901464199 AA.
  | Species        1: outer_partition_radius set to              6.043738901464199 AA .
  | Species        2: Confinement radius =              6.000000000000000 AA, multipole_radius_free =              6.037996416842453 AA.
  | Species        2: outer_partition_radius set to              6.037996416842453 AA .
  | The sparse table of interatomic distances needs       1721.65 kbyte instead of      1541.77 kbyte of memory.
  | Using the partition_type stratmann_smoother will reduce your memory usage.
  | Net number of integration points:    99530
  | of which are non-zero points    :    83047
  | Numerical average free-atom electrostatic potential    :    -19.99304492 eV
  Renormalizing the initial density to the exact electron count on the 3D integration grid.
  | Initial density: Formal number of electrons (from input files) :     146.0000000000
  | Integrated number of electrons on 3D grid     :     146.0001295579
  | Charge integration error                      :       0.0001295579
  | Normalization factor for density and gradient :       0.9999991126
  Renormalizing the free-atom superposition density to the exact electron count on the 3D integration grid.
  | Formal number of electrons (from input files) :     146.0000000000
  | Integrated number of electrons on 3D grid     :     146.0001295579
  | Charge integration error                      :       0.0001295579
  | Normalization factor for density and gradient :       0.9999991126
  Obtaining max. number of non-zero basis functions in each batch (get_n_compute_maxes).
  | Maximal number of non-zero basis functions:     1094 in task     0
  | Maximal number of non-zero basis functions:     1071 in task     1
  | Maximal number of non-zero basis functions:     1091 in task     2
  | Maximal number of non-zero basis functions:     1093 in task     3
  | Maximal number of non-zero basis functions:     1084 in task     4
  | Maximal number of non-zero basis functions:     1085 in task     5
  | Maximal number of non-zero basis functions:     1087 in task     6
  | Maximal number of non-zero basis functions:     1089 in task     7
  | Maximal number of non-zero basis functions:     1102 in task     8
  | Maximal number of non-zero basis functions:     1096 in task     9
  | Maximal number of non-zero basis functions:     1103 in task    10
  | Maximal number of non-zero basis functions:     1076 in task    11
  | Maximal number of non-zero basis functions:     1105 in task    12
  | Maximal number of non-zero basis functions:     1096 in task    13
  | Maximal number of non-zero basis functions:     1104 in task    14
  | Maximal number of non-zero basis functions:     1103 in task    15
  | Maximal number of non-zero basis functions:     1093 in task    16
  | Maximal number of non-zero basis functions:     1112 in task    17
  | Maximal number of non-zero basis functions:     1088 in task    18
  | Maximal number of non-zero basis functions:     1087 in task    19
  | Maximal number of non-zero basis functions:     1110 in task    20
  | Maximal number of non-zero basis functions:     1083 in task    21
  | Maximal number of non-zero basis functions:     1082 in task    22
  | Maximal number of non-zero basis functions:     1090 in task    23
  Allocating       41.899 MB for KS_eigenvector_complex
  Integrating Hamiltonian matrix: batch-based integration.
  Time summed over all CPUs for integration: real work       23.477 s, elapsed       24.011 s
  Integrating overlap matrix.
  Time summed over all CPUs for integration: real work       17.623 s, elapsed       18.030 s
  Decreasing sparse matrix size:
  | Tolerance:  0.1000E-12
  Hamiltonian matrix
  | Array has   327141 nonzero elements out of   398661 elements
  | Sparsity factor is 0.179
  Overlap matrix
  | Array has   297400 nonzero elements out of   398661 elements
  | Sparsity factor is 0.254
  New size of hamiltonian matrix:      328106

  Updating Kohn-Sham eigenvalues and eigenvectors using ELSI and the (modified) LAPACK eigensolver.
  Singularity check in k-point 24, task 0 (analysis for other k-points/tasks may follow below):
  Overlap matrix is not singular
  | Lowest and highest eigenvalues :  0.7665E-03,  0.7789E+01
  Finished singularity check of overlap matrix
  | Time :     0.098 s
  Starting LAPACK eigensolver
  Finished Cholesky decomposition
  | Time :     0.121 s
  Finished transformation to standard eigenproblem
  | Time :     0.002 s
  Finished solving standard eigenproblem
  | Time :     0.004 s
  Finished back-transformation of eigenvectors
  | Time :     0.000 s

  Obtaining occupation numbers and chemical potential using ELSI.
  | Chemical potential (Fermi level):    -4.40649332 eV
  Writing Kohn-Sham eigenvalues.
  K-point:       1 at    0.000000    0.000000    0.000000 (in units of recip. lattice)

  State    Occupation    Eigenvalue [Ha]    Eigenvalue [eV]
      1       2.00000       -3153.118057       -85800.70782
      2       2.00000        -515.602065       -14030.24604
      3       2.00000        -466.346662       -12689.93832
      4       2.00000        -466.346662       -12689.93832
      5       2.00000        -445.965474       -12135.33798
      6       2.00000        -445.965472       -12135.33794
      7       2.00000        -445.965468       -12135.33782
      8       2.00000        -119.514332        -3252.15043
      9       2.00000         -99.668677        -2712.12270
     10       2.00000         -99.668677        -2712.12269
     11       2.00000         -99.668636        -2712.12157
     12       2.00000         -78.256940        -2129.47968
     13       2.00000         -78.256940        -2129.47968
     14       2.00000         -78.256916        -2129.47903
     15       2.00000         -78.256916        -2129.47902
     16       2.00000         -78.256907        -2129.47878
     17       2.00000         -59.211841        -1611.23617
     18       2.00000         -59.211841        -1611.23617
     19       2.00000         -52.070337        -1416.90596
     20       2.00000         -52.070337        -1416.90595
     21       2.00000         -52.070337        -1416.90595
     22       2.00000         -52.070337        -1416.90595
     23       2.00000         -52.070324        -1416.90560
     24       2.00000         -52.070324        -1416.90560
     25       2.00000         -25.583157         -696.15313
     26       2.00000         -19.118497         -520.24077
     27       2.00000         -19.118497         -520.24077
     28       2.00000         -19.118261         -520.23435
     29       2.00000         -11.290548         -307.23144
     30       2.00000         -11.290548         -307.23144
     31       2.00000         -11.290358         -307.22627
     32       2.00000         -11.290358         -307.22627
     33       2.00000         -11.290262         -307.22367
     34       2.00000          -7.857867         -213.82345
     35       2.00000          -7.857867         -213.82345
     36       2.00000          -5.631910         -153.25206
     37       2.00000          -5.631910         -153.25206
     38       2.00000          -5.631909         -153.25205
     39       2.00000          -5.631909         -153.25204
     40       2.00000          -5.631742         -153.24750
     41       2.00000          -5.631741         -153.24747
     42       2.00000          -3.756138         -102.20971
     43       2.00000          -2.596198          -70.64614
     44       2.00000          -2.596161          -70.64512
     45       2.00000          -2.596025          -70.64144
     46       2.00000          -2.596025          -70.64144
     47       2.00000          -2.595836          -70.63630
     48       2.00000          -2.595836          -70.63630
     49       2.00000          -2.595759          -70.63419
     50       2.00000          -2.078596          -56.56146
     51       2.00000          -2.078596          -56.56146
     52       2.00000          -2.076485          -56.50404
     53       2.00000          -1.963758          -53.43656
     54       2.00000          -1.963758          -53.43656
     55       2.00000          -1.963507          -53.42974
     56       2.00000          -1.963507          -53.42974
     57       2.00000          -1.963395          -53.42669
     58       2.00000          -1.963395          -53.42669
     59       2.00000          -1.963324          -53.42477
     60       2.00000          -1.963324          -53.42477
     61       2.00000          -1.963270          -53.42330
     62       2.00000          -1.963249          -53.42272
     63       2.00000          -0.751156          -20.43999
     64       2.00000          -0.643173          -17.50162
     65       2.00000          -0.430515          -11.71492
     66       2.00000          -0.379066          -10.31492
     67       2.00000          -0.379066          -10.31491
     68       2.00000          -0.275234           -7.48950
     69       2.00000          -0.275234           -7.48949
     70       2.00000          -0.237290           -6.45698
     71       2.00000          -0.216367           -5.88764
     72       2.00000          -0.216366           -5.88763
     73       0.00000          -0.155550           -4.23272
     74       0.00000          -0.126291           -3.43655
     75       0.00000          -0.126291           -3.43654
     76       0.00000          -0.039633           -1.07848
     77       0.00000          -0.026540           -0.72218
     78       0.00000           0.105495            2.87066
     79       0.00000           0.105500            2.87080
     80       0.00000           0.282692            7.69245
     81       0.00000           0.288302            7.84511
     82       0.00000           0.288307            7.84523
     83       0.00000           0.298943            8.13466
     84       0.00000           0.298959            8.13508
     85       0.00000           0.315880            8.59552
     86       0.00000           0.315882            8.59559
     87       0.00000           0.346398            9.42598
     88       0.00000           0.367947           10.01234
     89       0.00000           0.498205           13.55686
     90       0.00000           0.507305           13.80448
     91       0.00000           0.740812           20.15852
     92       0.00000           0.740813           20.15855
     93       0.00000           0.822559           22.38297

  What follows are estimated values for band gap, HOMO, LUMO, etc.
  | They are estimated on a discrete k-point grid and not necessarily exact.
  | For converged numbers, create a DOS and/or band structure plot on a denser k-grid.

  Highest occupied state (VBM) at     -4.40649960 eV (relative to internal zero)
  | Occupation number:      1.00070808
  | K-point:    5001 at    0.863636    0.272727    0.500000 (in units of recip. lattice)

  Lowest unoccupied state (CBM) at    -4.36255270 eV (relative to internal zero)
  | Occupation number:      0.00000000
  | K-point:    2365 at    0.272727    0.818182    0.454545 (in units of recip. lattice)

  ESTIMATED overall HOMO-LUMO gap:      0.04394690 eV between HOMO at k-point 5001 and LUMO at k-point 2365
  | This appears to be an indirect band gap.
  | Smallest direct gap :      0.60341442 eV for k_point 2329 at    0.272727    0.818182    0.454545 (in units of recip. lattice)
  However, this system has fractional occupation numbers. Since we use a finite k-point grid,
  this material is metallic within the approximate finite broadening function (occupation_type)
  applied to determine the occupation numbers.
  Calculating total energy contributions from superposition of free atom densities.

  Total energy components:
  | Sum of eigenvalues            :      -14841.57698018 Ha     -403859.85779393 eV
  | XC energy correction          :        -536.20233621 Ha      -14590.80794038 eV
  | XC potential correction       :         700.17960978 Ha       19052.85658091 eV
  | Free-atom electrostatic energy:       -9260.45298218 Ha     -251989.74674230 eV
  | Hartree energy correction     :           0.00000000 Ha           0.00000000 eV
  | vdW energy correction         :           0.00000000 Ha           0.00000000 eV
  | Entropy correction            :          -0.00000006 Ha          -0.00000160 eV
  | ---------------------------
  | Total energy                  :      -23938.05268878 Ha     -651387.55589570 eV
  | Total energy, T -> 0          :      -23938.05268884 Ha     -651387.55589730 eV  <-- do not rely on this value for anything but (periodic) metals
  | Electronic free energy        :      -23938.05268890 Ha     -651387.55589890 eV

  Derived energy quantities:
  | Kinetic energy                :       26293.21057427 Ha      715474.66267592 eV
  | Electrostatic energy          :      -49695.06092684 Ha    -1352271.41063125 eV
  | Energy correction for multipole
  | error in Hartree potential    :           0.00000000 Ha           0.00000000 eV
  | Sum of eigenvalues per atom                           :     -134619.95259798 eV
  | Total energy (T->0) per atom                          :     -217129.18529910 eV  <-- do not rely on this value for anything but (periodic) metals
  | Electronic free energy per atom                       :     -217129.18529963 eV
  Initialize hartree_potential_storage
  Max. number of atoms included in rho_multipole:            3

  End scf initialization - timings             :  max(cpu_time)    wall_clock(cpu1)
  | Time for scf. initialization               :        5.554 s           5.844 s
  | Boundary condition initialization          :        0.205 s           0.208 s
  | Relaxation initialization                  :        0.002 s           0.005 s
  | Integration                                :        1.767 s           1.780 s
  | Solution of K.-S. eqns.                    :        3.020 s           3.263 s
  | Grid partitioning                          :        0.122 s           0.122 s
  | Preloading free-atom quantities on grid    :        0.030 s           0.030 s
  | Free-atom superposition energy             :        0.033 s           0.032 s
  | Total energy evaluation                    :        0.015 s           0.016 s

  Partial memory accounting:
  | Current value for overall tracked memory usage:
  |   Minimum:       48.168 MB (on task  0)
  |   Maximum:       48.168 MB (on task  0)
  |   Average:       48.168 MB
  | Peak value for overall tracked memory usage:
  |   Minimum:       61.255 MB (on task  1 after allocating wave)
  |   Maximum:       62.053 MB (on task 17 after allocating wave)
  |   Average:       61.674 MB
  | Largest tracked array allocation so far:
  |   Minimum:       41.899 MB (KS_eigenvector_complex on task  0)
  |   Maximum:       41.899 MB (KS_eigenvector_complex on task  0)
  |   Average:       41.899 MB
  Note:  These values currently only include a subset of arrays which are explicitly tracked.
  The "true" memory usage will be greater.
------------------------------------------------------------

------------------------------------------------------------
          Begin self-consistency iteration #    1

  Date     :  20200403, Time     :  071913.290
------------------------------------------------------------
  Evaluating new KS density using the density matrix
  Evaluating density matrix
  Time summed over all CPUs for getting density from density matrix: real work       41.134 s, elapsed       43.306 s
  Integration grid: deviation in total charge (<rho> - N_e) =  -3.002469E-10
  Pulay mixing of updated and previous charge densities.
  Renormalizing the density to the exact electron count on the 3D integration grid.
  | Formal number of electrons (from input files) :     146.0000000000
  | Integrated number of electrons on 3D grid     :     146.0002463002
  | Charge integration error                      :       0.0002463002
  | Normalization factor for density and gradient :       0.9999983130

  Evaluating partitioned Hartree potential by multipole expansion.
  | Original multipole sum: apparent total charge =  -0.513816E-13
  | Sum of charges compensated after spline to logarithmic grids =  -0.264550E-09
  | Analytical far-field extrapolation by fixed multipoles:
  | Hartree multipole sum: apparent total charge =  -0.514047E-13
  Summing up the Hartree potential.
  Time summed over all CPUs for potential: real work        8.300 s, elapsed        8.481 s
  | RMS charge density error from multipole expansion :   0.282234E-03
  | Average real-space part of the electrostatic potential :     -0.01194076 eV

  Integrating Hamiltonian matrix: batch-based integration.
  Time summed over all CPUs for integration: real work       22.766 s, elapsed       23.244 s

  Updating Kohn-Sham eigenvalues and eigenvectors using ELSI and the (modified) LAPACK eigensolver.
  Starting LAPACK eigensolver
  Finished Cholesky decomposition
  | Time :     0.001 s
  Finished transformation to standard eigenproblem
  | Time :     0.001 s
  Finished solving standard eigenproblem
  | Time :     0.003 s
  Finished back-transformation of eigenvectors
  | Time :     0.001 s

  Obtaining occupation numbers and chemical potential using ELSI.
  | Chemical potential (Fermi level):    -4.45173231 eV
  Writing Kohn-Sham eigenvalues.
  K-point:       1 at    0.000000    0.000000    0.000000 (in units of recip. lattice)

  State    Occupation    Eigenvalue [Ha]    Eigenvalue [eV]
      1       2.00000       -3153.135714       -85801.18830
      2       2.00000        -515.619350       -14030.71639
      3       2.00000        -466.344338       -12689.87509
      4       2.00000        -466.344338       -12689.87509
      5       2.00000        -445.982830       -12135.81028
      6       2.00000        -445.982829       -12135.81024
      7       2.00000        -445.982819       -12135.80997
      8       2.00000        -119.530221        -3252.58281
      9       2.00000         -99.684562        -2712.55493
     10       2.00000         -99.684561        -2712.55492
     11       2.00000         -99.684512        -2712.55358
     12       2.00000         -78.273055        -2129.91820
     13       2.00000         -78.273055        -2129.91820
     14       2.00000         -78.272986        -2129.91632
     15       2.00000         -78.272986        -2129.91631
     16       2.00000         -78.272961        -2129.91564
     17       2.00000         -59.209674        -1611.17719
     18       2.00000         -59.209674        -1611.17719
     19       2.00000         -52.068151        -1416.84649
     20       2.00000         -52.068151        -1416.84649
     21       2.00000         -52.068151        -1416.84648
     22       2.00000         -52.068151        -1416.84648
     23       2.00000         -52.068117        -1416.84556
     24       2.00000         -52.068117        -1416.84556
     25       2.00000         -25.597265         -696.53702
     26       2.00000         -19.132453         -520.62053
     27       2.00000         -19.132453         -520.62053
     28       2.00000         -19.132199         -520.61363
     29       2.00000         -11.304465         -307.61014
     30       2.00000         -11.304465         -307.61014
     31       2.00000         -11.304129         -307.60101
     32       2.00000         -11.304129         -307.60101
     33       2.00000         -11.303969         -307.59665
     34       2.00000          -7.855952         -213.77133
     35       2.00000          -7.855952         -213.77133
     36       2.00000          -5.630017         -153.20056
     37       2.00000          -5.630017         -153.20056
     38       2.00000          -5.630017         -153.20055
     39       2.00000          -5.630017         -153.20055
     40       2.00000          -5.629782         -153.19415
     41       2.00000          -5.629781         -153.19413
     42       2.00000          -3.767098         -102.50796
     43       2.00000          -2.609800          -71.01627
     44       2.00000          -2.609664          -71.01257
     45       2.00000          -2.609652          -71.01226
     46       2.00000          -2.609652          -71.01225
     47       2.00000          -2.609324          -71.00333
     48       2.00000          -2.609324          -71.00333
     49       2.00000          -2.609106          -70.99739
     50       2.00000          -2.088437          -56.82926
     51       2.00000          -2.088437          -56.82926
     52       2.00000          -2.086301          -56.77115
     53       2.00000          -1.961859          -53.38491
     54       2.00000          -1.961859          -53.38491
     55       2.00000          -1.961640          -53.37893
     56       2.00000          -1.961640          -53.37893
     57       2.00000          -1.961497          -53.37506
     58       2.00000          -1.961497          -53.37506
     59       2.00000          -1.961408          -53.37262
     60       2.00000          -1.961408          -53.37262
     61       2.00000          -1.961335          -53.37064
     62       2.00000          -1.961312          -53.37001
     63       2.00000          -0.750451          -20.42082
     64       2.00000          -0.642136          -17.47340
     65       2.00000          -0.430892          -11.72516
     66       2.00000          -0.382012          -10.39507
     67       2.00000          -0.382012          -10.39506
     68       2.00000          -0.281194           -7.65168
     69       2.00000          -0.281194           -7.65167
     70       2.00000          -0.242152           -6.58928
     71       2.00000          -0.215716           -5.86994
     72       2.00000          -0.215716           -5.86992
     73       0.00000          -0.154277           -4.19809
     74       0.00000          -0.128417           -3.49439
     75       0.00000          -0.128416           -3.49439
     76       0.00000          -0.039703           -1.08036
     77       0.00000          -0.027429           -0.74638
     78       0.00000           0.104932            2.85536
     79       0.00000           0.104938            2.85550
     80       0.00000           0.281363            7.65629
     81       0.00000           0.287395            7.82041
     82       0.00000           0.287399            7.82053
     83       0.00000           0.298811            8.13107
     84       0.00000           0.298827            8.13150
     85       0.00000           0.314587            8.56034
     86       0.00000           0.314589            8.56041
     87       0.00000           0.345926            9.41312
     88       0.00000           0.366898            9.98380
     89       0.00000           0.498709           13.57057
     90       0.00000           0.507323           13.80497
     91       0.00000           0.740482           20.14954
     92       0.00000           0.740483           20.14957
     93       0.00000           0.822753           22.38824

  What follows are estimated values for band gap, HOMO, LUMO, etc.
  | They are estimated on a discrete k-point grid and not necessarily exact.
  | For converged numbers, create a DOS and/or band structure plot on a denser k-grid.

  Highest occupied state (VBM) at     -4.45385715 eV (relative to internal zero)
  | Occupation number:      1.23620213
  | K-point:     881 at    0.090909    0.727273    0.545455 (in units of recip. lattice)

  Lowest unoccupied state (CBM) at    -4.45095701 eV (relative to internal zero)
  | Occupation number:      0.91269145
  | K-point:       3 at    0.000000    0.000000    0.090909 (in units of recip. lattice)

  ESTIMATED overall HOMO-LUMO gap:      0.00290014 eV between HOMO at k-point 881 and LUMO at k-point 3
  | This appears to be an indirect band gap.
  | Smallest direct gap :      0.52441757 eV for k_point 2329 at    0.000000    0.000000    0.090909 (in units of recip. lattice)
  However, this system has fractional occupation numbers. Since we use a finite k-point grid,
  this material is metallic within the approximate finite broadening function (occupation_type)
  applied to determine the occupation numbers.

  Total energy components:
  | Sum of eigenvalues            :      -14842.48700987 Ha     -403884.62096192 eV
  | XC energy correction          :        -536.18221491 Ha      -14590.26041211 eV
  | XC potential correction       :         700.15329046 Ha       19052.14039565 eV
  | Free-atom electrostatic energy:       -9260.45298218 Ha     -251989.74674230 eV
  | Hartree energy correction     :           0.92310554 Ha          25.11897974 eV
  | vdW energy correction         :           0.00000000 Ha           0.00000000 eV
  | Entropy correction            :          -0.00000023 Ha          -0.00000630 eV
  | ---------------------------
  | Total energy                  :      -23938.04581097 Ha     -651387.36874094 eV
  | Total energy, T -> 0          :      -23938.04581120 Ha     -651387.36874724 eV  <-- do not rely on this value for anything but (periodic) metals
  | Electronic free energy        :      -23938.04581143 Ha     -651387.36875353 eV

  Derived energy quantities:
  | Kinetic energy                :       26292.88859996 Ha      715465.90130910 eV
  | Electrostatic energy          :      -49694.75219601 Ha    -1352263.00963793 eV
  | Energy correction for multipole
  | error in Hartree potential    :           0.00004625 Ha           0.00125863 eV
  | Sum of eigenvalues per atom                           :     -134628.20698731 eV
  | Total energy (T->0) per atom                          :     -217129.12291575 eV  <-- do not rely on this value for anything but (periodic) metals
  | Electronic free energy per atom                       :     -217129.12291784 eV

  Self-consistency convergence accuracy:
  | Change of charge density      :  0.2652E+00
  | Change of sum of eigenvalues  : -0.2476E+02 eV
  | Change of total energy        :  0.1872E+00 eV

  End self-consistency iteration #     1       :  max(cpu_time)    wall_clock(cpu1)
  | Time for this iteration                    :        6.233 s           6.233 s
  | Charge density update                      :        2.391 s           2.391 s
  | Density mixing & preconditioning           :        0.145 s           0.145 s
  | Hartree multipole update                   :        0.002 s           0.003 s
  | Hartree multipole summation                :        0.367 s           0.367 s
  | Integration                                :        0.980 s           0.980 s
  | Solution of K.-S. eqns.                    :        2.325 s           2.327 s
  | Total energy evaluation                    :        0.015 s           0.015 s

  Partial memory accounting:
  | Current value for overall tracked memory usage:
  |   Minimum:       48.168 MB (on task  0)
  |   Maximum:       48.168 MB (on task  0)
  |   Average:       48.168 MB
  | Peak value for overall tracked memory usage:
  |   Minimum:       62.851 MB (on task  1 after allocating gradient_basis_wave)
  |   Maximum:       63.761 MB (on task 17 after allocating gradient_basis_wave)
  |   Average:       63.330 MB
  | Largest tracked array allocation so far:
  |   Minimum:       41.899 MB (KS_eigenvector_complex on task  0)
  |   Maximum:       41.899 MB (KS_eigenvector_complex on task  0)
  |   Average:       41.899 MB
  Note:  These values currently only include a subset of arrays which are explicitly tracked.
  The "true" memory usage will be greater.
------------------------------------------------------------

------------------------------------------------------------
          Begin self-consistency iteration #    2

  Date     :  20200403, Time     :  071919.524
------------------------------------------------------------
  Evaluating new KS density using the density matrix
  Evaluating density matrix
  Time summed over all CPUs for getting density from density matrix: real work       40.982 s, elapsed       41.694 s
  Integration grid: deviation in total charge (<rho> - N_e) =  -3.000480E-10
  Pulay mixing of updated and previous charge densities.
  Renormalizing the density to the exact electron count on the 3D integration grid.
  | Formal number of electrons (from input files) :     146.0000000000
  | Integrated number of electrons on 3D grid     :     146.0015080296
  | Charge integration error                      :       0.0015080296
  | Normalization factor for density and gradient :       0.9999896711

  Evaluating partitioned Hartree potential by multipole expansion.
  | Original multipole sum: apparent total charge =  -0.667460E-13
  | Sum of charges compensated after spline to logarithmic grids =  -0.140474E-07
  | Analytical far-field extrapolation by fixed multipoles:
  | Hartree multipole sum: apparent total charge =  -0.667398E-13
  Summing up the Hartree potential.
  Time summed over all CPUs for potential: real work        9.286 s, elapsed        9.478 s
  | RMS charge density error from multipole expansion :   0.226636E-02
  | Average real-space part of the electrostatic potential :     -0.09010306 eV

  Integrating Hamiltonian matrix: batch-based integration.
  Time summed over all CPUs for integration: real work       22.752 s, elapsed       23.220 s

  Updating Kohn-Sham eigenvalues and eigenvectors using ELSI and the (modified) LAPACK eigensolver.
  Starting LAPACK eigensolver
  Finished Cholesky decomposition
  | Time :     0.001 s
  Finished transformation to standard eigenproblem
  | Time :     0.001 s
  Finished solving standard eigenproblem
  | Time :     0.003 s
  Finished back-transformation of eigenvectors
  | Time :     0.001 s

  Obtaining occupation numbers and chemical potential using ELSI.
  | Chemical potential (Fermi level):    -4.88024018 eV
  What follows are estimated values for band gap, HOMO, LUMO, etc.
  | They are estimated on a discrete k-point grid and not necessarily exact.
  | For converged numbers, create a DOS and/or band structure plot on a denser k-grid.

  Highest occupied state (VBM) at     -4.88269211 eV (relative to internal zero)
  | Occupation number:      1.27122545
  | K-point:     588 at    0.045455    0.909091    0.772727 (in units of recip. lattice)

  Lowest unoccupied state (CBM) at    -4.87407094 eV (relative to internal zero)
  | Occupation number:      0.38295665
  | K-point:    1696 at    0.181818    0.954545    0.909091 (in units of recip. lattice)

  ESTIMATED overall HOMO-LUMO gap:      0.00862117 eV between HOMO at k-point 588 and LUMO at k-point 1696
  | This appears to be an indirect band gap.
  | Smallest direct gap :      0.08868927 eV for k_point 2556 at    0.181818    0.954545    0.909091 (in units of recip. lattice)
  However, this system has fractional occupation numbers. Since we use a finite k-point grid,
  this material is metallic within the approximate finite broadening function (occupation_type)
  applied to determine the occupation numbers.

  Total energy components:
  | Sum of eigenvalues            :      -14848.23770164 Ha     -404041.10524672 eV
  | XC energy correction          :        -536.05641518 Ha      -14586.83722717 eV
  | XC potential correction       :         699.98840555 Ha       19047.65364903 eV
  | Free-atom electrostatic energy:       -9260.45298218 Ha     -251989.74674230 eV
  | Hartree energy correction     :           6.72962663 Ha         183.12245790 eV
  | vdW energy correction         :           0.00000000 Ha           0.00000000 eV
  | Entropy correction            :          -0.00000075 Ha          -0.00002034 eV
  | ---------------------------
  | Total energy                  :      -23938.02906681 Ha     -651386.91310926 eV
  | Total energy, T -> 0          :      -23938.02906756 Ha     -651386.91312960 eV  <-- do not rely on this value for anything but (periodic) metals
  | Electronic free energy        :      -23938.02906831 Ha     -651386.91314994 eV

  Derived energy quantities:
  | Kinetic energy                :       26290.90582746 Ha      715411.94732440 eV
  | Electrostatic energy          :      -49692.87847910 Ha    -1352212.02320649 eV
  | Energy correction for multipole
  | error in Hartree potential    :           0.00039052 Ha           0.01062660 eV
  | Sum of eigenvalues per atom                           :     -134680.36841557 eV
  | Total energy (T->0) per atom                          :     -217128.97104320 eV  <-- do not rely on this value for anything but (periodic) metals
  | Electronic free energy per atom                       :     -217128.97104998 eV

  Self-consistency convergence accuracy:
  | Change of charge density      :  0.2344E+00
  | Change of sum of eigenvalues  : -0.1565E+03 eV
  | Change of total energy        :  0.4556E+00 eV

  End self-consistency iteration #     2       :  max(cpu_time)    wall_clock(cpu1)
  | Time for this iteration                    :        6.273 s           6.273 s
  | Charge density update                      :        2.323 s           2.323 s
  | Density mixing & preconditioning           :        0.170 s           0.170 s
  | Hartree multipole update                   :        0.002 s           0.003 s
  | Hartree multipole summation                :        0.410 s           0.410 s
  | Integration                                :        0.978 s           0.978 s
  | Solution of K.-S. eqns.                    :        2.366 s           2.369 s
  | Total energy evaluation                    :        0.015 s           0.015 s

  Partial memory accounting:
  | Current value for overall tracked memory usage:
  |   Minimum:       48.168 MB (on task  0)
  |   Maximum:       48.168 MB (on task  0)
  |   Average:       48.168 MB
  | Peak value for overall tracked memory usage:
  |   Minimum:       62.851 MB (on task  1 after allocating gradient_basis_wave)
  |   Maximum:       63.761 MB (on task 17 after allocating gradient_basis_wave)
  |   Average:       63.330 MB
  | Largest tracked array allocation so far:
  |   Minimum:       41.899 MB (KS_eigenvector_complex on task  0)
  |   Maximum:       41.899 MB (KS_eigenvector_complex on task  0)
  |   Average:       41.899 MB
  Note:  These values currently only include a subset of arrays which are explicitly tracked.
  The "true" memory usage will be greater.
------------------------------------------------------------

[...]

  Libmbd: Performing Hirshfeld analysis...
  Libmbd: Calculating MBD energy...
  Libmbd: Evaluated energy: -0.29326381983510261E-001

  Total energy components:
  | Sum of eigenvalues            :      -14847.40839774 Ha     -404018.53873930 eV
  | XC energy correction          :        -536.08166842 Ha      -14587.52440280 eV
  | XC potential correction       :         700.01912126 Ha       19048.48946599 eV
  | Free-atom electrostatic energy:       -9260.37915777 Ha     -251987.73787784 eV
  | Hartree energy correction     :           5.82155832 Ha         158.41266172 eV
  | vdW energy correction         :          -0.02932638 Ha          -0.79801146 eV
  | Entropy correction            :          -0.00002135 Ha          -0.00058084 eV
  | ---------------------------
  | Total energy                  :      -23938.05787073 Ha     -651387.69690369 eV
  | Total energy, T -> 0          :      -23938.05789208 Ha     -651387.69748453 eV  <-- do not rely on this value for anything but (periodic) metals
  | Electronic free energy        :      -23938.05791342 Ha     -651387.69806537 eV

  Derived energy quantities:
  | Kinetic energy                :       26292.80638346 Ha      715463.66408425 eV
  | Electrostatic energy          :      -49694.75325938 Ha    -1352263.03857369 eV
  | Energy correction for multipole
  | error in Hartree potential    :           0.00052112 Ha           0.01418030 eV
  | Sum of eigenvalues per atom                           :     -134672.84624643 eV
  | Total energy (T->0) per atom                          :     -217129.23249484 eV  <-- do not rely on this value for anything but (periodic) metals
  | Electronic free energy per atom                       :     -217129.23268846 eV

  atomic forces [eV/Ang]:
  -----------------------
  atom #    1
   Hellmann-Feynman              :  0.259841E-01  0.772235E-01 -0.192676E-01
   Ionic forces                  :  0.000000E+00  0.000000E+00  0.000000E+00
   Multipole                     : -0.481327E-04 -0.146654E-03  0.218685E-04
   Pulay + GGA                   : -0.244493E-01 -0.728820E-01  0.183723E-01
   Van der Waals                 : -0.487265E-05 -0.144757E-04  0.298772E-05
   ----------------------------------------------------------------
   Total forces(   1)            :  0.148176E-02  0.418033E-02 -0.870356E-03
  atom #    2
   Hellmann-Feynman              : -0.514266E-01  0.356825E-01  0.491981E+02
   Ionic forces                  :  0.000000E+00  0.000000E+00  0.000000E+00
   Multipole                     : -0.153281E-04  0.153348E-03 -0.261932E-01
   Pulay + GGA                   :  0.449450E-01 -0.319917E-01 -0.491815E+02
   Van der Waals                 : -0.128137E-04  0.219142E-04  0.151560E-01
   ----------------------------------------------------------------
   Total forces(   2)            : -0.650971E-02  0.386604E-02  0.554686E-02
  atom #    3
   Hellmann-Feynman              :  0.440088E-01 -0.577246E-01 -0.491912E+02
   Ionic forces                  :  0.000000E+00  0.000000E+00  0.000000E+00
   Multipole                     :  0.692935E-05 -0.176607E-03  0.261732E-01
   Pulay + GGA                   : -0.389167E-01  0.499565E-01  0.491756E+02
   Van der Waals                 :  0.176864E-04 -0.743846E-05 -0.151589E-01
   ----------------------------------------------------------------
   Total forces(   3)            :  0.511669E-02 -0.795219E-02 -0.460401E-02


  Analytical stress tensor components [eV]         xx                  yy                  zz                  xy                  xz                  yz
  -----------------------------------------------------------------------------------------------------------------------------------------------------------
    Nuclear Hellmann-Feynman      :    -0.2770929803E+02   -0.2785248579E+02   -0.2031558986E+02   -0.6545045633E-01    0.6405893637E-01   -0.6238284724E-01
    Multipole Hellmann-Feynman    :    -0.1003022075E+03   -0.1005431425E+03   -0.7851346524E+02   -0.1146581303E+00    0.1052159974E+00   -0.1085009100E+00
    On-site Multipole corrections :    -0.6338521242E+01   -0.6338384012E+01   -0.6338645767E+01   -0.1829324446E-06   -0.2130685177E-06    0.8092898341E-05
    Strain deriv. of the orbitals :     0.1334788035E+03    0.1338499911E+03    0.1043257990E+03    0.1740751400E+00   -0.1564594175E+00    0.1577781938E+00
    vdW correction   :     0.8463061635E+00    0.8464293115E+00    0.8225477825E+00    0.6602658837E-04   -0.4424619966E-04    0.4860888898E-04
  -----------------------------------------------------------------------------------------------------------------------------------------------------------
  Sum of all contributions        :    -0.2491706920E-01   -0.3759186838E-01   -0.1935404870E-01   -0.5967602903E-02    0.1277105698E-01   -0.1304886168E-01

  +-------------------------------------------------------------------+
  |              Analytical stress tensor - Symmetrized               |
  |                  Cartesian components [eV/A**3]                   |
  +-------------------------------------------------------------------+
  |                x                y                z                |
  |                                                                   |
  |  x        -0.00040625      -0.00009730       0.00020822           |
  |  y        -0.00009730      -0.00061291      -0.00021275           |
  |  z         0.00020822      -0.00021275      -0.00031555           |
  |                                                                   |
  |  Pressure:       0.00044490   [eV/A**3]                           |
  |                                                                   |
  +-------------------------------------------------------------------+

 * Warning: Stress tensor is anisotropic. Be aware that pressure is an isotropic quantity.


  Leaving Libmbd.

  Timings for VdW correction (Tkatchenko-Scheffler 2009 or later):
  | CPU time:        6.016 s, Wall clock time:        6.016 s.
  Removing unitary transformations (pure translations, rotations) from forces on atoms.
  Atomic forces before filtering:
  | Net force on center of mass :   0.887363E-04  0.941914E-04  0.724917E-04 eV/A
  Atomic forces after filtering:
  | Net force on center of mass :   0.000000E+00  0.139380E-17  0.696899E-18 eV/A

  Energy and forces in a compact form:
  | Total energy uncorrected      :         -0.651387696903688E+06 eV
  | Total energy corrected        :         -0.651387697484529E+06 eV  <-- do not rely on this value for anything but (periodic) metals
  | Electronic free energy        :         -0.651387698065371E+06 eV
  Total atomic forces (unitary forces cleaned) [eV/Ang]:
  |    1          0.145217725580506E-02          0.414893742441772E-02         -0.894519809685488E-03
  |    2         -0.653928815729720E-02          0.383464570060883E-02          0.552269259612865E-02
  |    3          0.508711090149215E-02         -0.798358312502655E-02         -0.462817278644316E-02

  ------------------------------------ 
  Start decomposition of the XC Energy 
  ------------------------------------ 
  X and C from original XC functional choice 
  Hartree-Fock Energy :          0.000000000 Ha              0.000000000 eV
  X Energy            :       -527.916324066 Ha         -14365.334077995 eV
  C Energy            :         -8.165344354 Ha           -222.190324804 eV
  Total XC Energy     :       -536.081668421 Ha         -14587.524402800 eV
  ------------------------------------ 
  LDA X and C from self-consistent density 
  X Energy LDA        :       -504.542169369 Ha         -13729.290967169 eV
  C Energy LDA        :        -14.316294071 Ha           -389.566182590 eV
  ------------------------------------ 
  End decomposition of the XC Energy 
  ------------------------------------ 

------------------------------------------------------------
  Relaxation / MD: End force evaluation.       :  max(cpu_time)    wall_clock(cpu1)
  | Time for this force evaluation             :      134.573 s         134.804 s

------------------------------------------------------------
  Geometry optimization: Attempting to predict improved coordinates.

  +-------------------------------------------------------------------+
  | Generalized derivatives on lattice vectors [eV/A]                 |
  +-------------------------------------------------------------------+
  |lattice_vector      -0.00750403      -0.00732116       0.00138566  |
  |lattice_vector      -0.00182314      -0.01148455      -0.00398651  |
  |lattice_vector       0.00257607      -0.00263210      -0.00390393  |
  +-------------------------------------------------------------------+
  | Forces on lattice vectors cleaned from atomic contributions [eV/A]|
  +-------------------------------------------------------------------+
  |lattice_vector       0.00750403       0.00732116      -0.00138566  |
  |lattice_vector       0.00182314       0.01148455       0.00398651  |
  |lattice_vector      -0.00257607       0.00263210       0.00390393  |
  +-------------------------------------------------------------------+
  Symmetrized total atomic cartesian forces [eV/Ang]:
  |   1     0.1452177256E-02     0.4148937424E-02    -0.8945198097E-03
  |   2    -0.6539288157E-02     0.3834645701E-02     0.5522692596E-02
  |   3     0.5087110901E-02    -0.7983583125E-02    -0.4628172786E-02
  +-------------------------------------------------------------------+
  | Symmetrized forces on lattice vectors cleaned from symmetrized
  | atomic contributions [eV/A]|
  +-------------------------------------------------------------------+
  |lattice_vector       0.00826919       0.00000000       0.00000000  |
  |lattice_vector      -0.00413459       0.00716133       0.00000000  |
  |lattice_vector       0.00000000       0.00000000       0.00390393  |
  +-------------------------------------------------------------------+
  Removing unitary transformations (pure translations, rotations) from forces on atoms.
  Atomic forces before filtering:
  | Net force on center of mass :   0.000000E+00  0.139380E-17  0.139380E-17 eV/A
  Atomic forces after filtering:
  | Net force on center of mass :   0.000000E+00 -0.139380E-17 -0.696899E-18 eV/A
  Net remaining forces (excluding translations, rotations) in present geometry:
  || Forces on atoms   || =   0.798358E-02 eV/A.
  || Forces on lattice || =   0.826919E-02 eV/A^3.
  Maximum force component is  0.826919E-02 eV/A.
  Present geometry is converged.

  Symmetry-reduced parameters:
  | atomic   1         -0.313220180492694E-03
  | atomic   2         -0.325434276222383E-03
  | atomic   3         -0.258470214285699E-03
  | atomic   4          0.333174724104762E+00
  | atomic   5          0.666185965244359E+00
  | atomic   6          0.259179617219387E+00
  | atomic   7          0.666337615906904E+00
  | atomic   8          0.333338586224494E+00
  | atomic   9          0.740277970187529E+00
  | lattice  1          0.377963042461505E+01
  | lattice  2          0.495758136010859E+01
  Symmetry-reduced forces:
  | atomic   1          0.548869333797478E-02
  | atomic   2          0.108361875023778E-01
  | atomic   3         -0.443465473474466E-02
  | atomic   4         -0.247160924746454E-01
  | atomic   5          0.249098231490956E-01
  | atomic   6          0.273791978721771E-01
  | atomic   7          0.192273991366706E-01
  | atomic   8         -0.357460106514734E-01
  | atomic   9         -0.229445431374325E-01
  | lattice  1          0.165383729520852E-01
  | lattice  2          0.390392961693873E-02
------------------------------------------------------------
  Final atomic structure:
                         x [A]             y [A]             z [A]
  lattice_vector         3.77963042        0.00000000        0.00000000
  lattice_vector        -1.88981521        3.27325596        0.00000000
  lattice_vector         0.00000000        0.00000000        4.95758136

            atom        -0.00056885       -0.00106523       -0.00128139  Pt
            atom         1.89012416       -1.09265878        1.28490404  Se
            atom        -1.89106883        1.09110252       -1.28759309  Se

  Fractional coordinates:
                         L1                L2                L3
       atom_frac        -0.00031322       -0.00032543       -0.00025847  Pt
       atom_frac         0.33317472       -0.33381403        0.25917962  Se
       atom_frac        -0.33366238        0.33333859       -0.25972203  Se
------------------------------------------------------------

  Quantities derived from the lattice vectors:
  | Reciprocal lattice vector 1:  1.662381  0.959776  0.000000
  | Reciprocal lattice vector 2:  0.000000  1.919552  0.000000
  | Reciprocal lattice vector 3:  0.000000  0.000000  1.267389
  | Unit cell volume                               :   0.613337E+02  A^3

  Range separation radius for Ewald summation (hartree_convergence_parameter):      3.91876542 bohr.

------------------------------------------------------------------------------
  Final output of selected total energy values:

  The following output summarizes some interesting total energy values
  at the end of a run (AFTER all relaxation, molecular dynamics, etc.).

  | Total energy of the DFT / Hartree-Fock s.c.f. calculation      :        -651387.696903688 eV
  | Final zero-broadening corrected energy (caution - metals only) :        -651387.697484529 eV
  | For reference only, the value of 1 Hartree used in FHI-aims is :             27.211384500 eV
  | For reference only, the overall average (free atom contribution
  | + realspace contribution) of the electrostatic potential after
  | s.c.f. convergence is                                          :            -19.800458255 eV

  Before relying on these values, please be sure to understand exactly which
  total energy value is referred to by a given number. Different objects may
  all carry the same name 'total energy'. Definitions:

  Total energy of the DFT / Hartree-Fock s.c.f. calculation:
  | Note that this energy does not include ANY quantities calculated after the
  | s.c.f. cycle, in particular not ANY RPA, MP2, etc. many-body perturbation terms.

  Final zero-broadening corrected energy:
  | For metallic systems only, a broadening of the occupation numbers at the Fermi
  | level can be extrapolated back to zero broadening by an electron-gas inspired
  | formula. For all systems that are not real metals, this value can be
  | meaningless and should be avoided.

------------------------------------------------------------------------------
  Methods described in the following list of references were used in this FHI-aims run.
  If you publish the results, please make sure to cite these reference if they apply.
  FHI-aims is an academic code, and for our developers (often, Ph.D. students
  and postdocs), scientific credit in the community is essential.
  Thank you for helping us!

  For any use of FHI-aims, please cite:

    Volker Blum, Ralf Gehrke, Felix Hanke, Paula Havu, Ville Havu,
    Xinguo Ren, Karsten Reuter, and Matthias Scheffler
    'Ab initio molecular simulations with numeric atom-centered orbitals'
    Computer Physics Communications 180, 2175-2196 (2009)
    http://dx.doi.org/10.1016/j.cpc.2009.06.022


  For the analytical stress tensor used in your run, please cite:

    Franz Knuth, Christian Carbogno, Viktor Atalla, Volker Blum, Matthias Scheffler
    'All-electron formalism for total energy strain derivatives and
    stress tensor components for numeric atom-centered orbitals'
    Computer Physics Communications 190, 33-50 (2015).
    http://dx.doi.org/10.1016/j.cpc.2015.01.003


  The provided symmetry information was generated with SPGlib:

    Atsushi Togo, Yusuke Seto, Dimitar Pashov
    SPGlib 1.7.3 obtained from http://spglib.sourceforge.net
    Copyright (C) 2008 Atsushi Togo


  The ELSI infrastructure was used in your run to solve the Kohn-Sham electronic structure.
  Please check out http://elsi-interchange.org to learn more.
  If scalability is important for your project, please acknowledge ELSI by citing:

    V. W-z. Yu, F. Corsetti, A. Garcia, W. P. Huhn, M. Jacquelin, W. Jia,
    B. Lange, L. Lin, J. Lu, W. Mi, A. Seifitokaldani, A. Vazquez-Mayagoitia,
    C. Yang, H. Yang, and V. Blum
    'ELSI: A unified software interface for Kohn-Sham electronic structure solvers'
    Computer Physics Communications 222, 267-285 (2018).
    http://dx.doi.org/10.1016/j.cpc.2017.09.007


  For the real-space grid partitioning and parallelization used in this calculation, please cite:

    Ville Havu, Volker Blum, Paula Havu, and Matthias Scheffler,
    'Efficient O(N) integration for all-electron electronic structure calculation'
    'using numerically tabulated basis functions'
    Journal of Computational Physics 228, 8367-8379 (2009).
    http://dx.doi.org/10.1016/j.jcp.2009.08.008

  Of course, there are many other important community references, e.g., those cited in the
  above references. Our list is limited to references that describe implementations in the
  FHI-aims code. The reason is purely practical (length of this list) - please credit others as well.

------------------------------------------------------------
          Leaving FHI-aims.
          Date     :  20200403, Time     :  074922.755

          Computational steps:
          | Number of self-consistency cycles          :          183
          | Number of SCF (re)initializations          :           12
          | Number of relaxation steps                 :           11

          Detailed time accounting                     :  max(cpu_time)    wall_clock(cpu1)
          | Total time                                 :     1815.748 s        1816.952 s
          | Preparation time                           :        0.664 s           0.832 s
          | Boundary condition initalization           :        2.352 s           2.351 s
          | Grid partitioning                          :        1.513 s           1.511 s
          | Preloading free-atom quantities on grid    :        3.423 s           3.425 s
          | Free-atom superposition energy             :        0.367 s           0.366 s
          | Total time for integrations                :      189.170 s         189.161 s
          | Total time for solution of K.-S. equations :      439.740 s         441.032 s
          | Total time for EV reorthonormalization     :        6.591 s           6.635 s
          | Total time for density & force components  :      954.290 s         954.333 s
          | Total time for mixing & preconditioning    :       24.244 s          24.247 s
          | Total time for Hartree multipole update    :        0.440 s           0.438 s
          | Total time for Hartree multipole sum       :      113.224 s         113.240 s
          | Total time for total energy evaluation     :        2.799 s           2.746 s
          | Total time for scaled ZORA corrections     :        0.000 s           0.000 s
          | Total time for vdW correction              :       72.976 s          72.985 s

          Partial memory accounting:
          | Residual value for overall tracked memory usage across tasks:     0.000000 MB (should be 0.000000 MB)
          | Peak values for overall tracked memory usage:
          |   Minimum:      119.656 MB (on task 14 after allocating d_wave)
          |   Maximum:      120.756 MB (on task 12 after allocating d_wave)
          |   Average:      120.055 MB
          | Largest tracked array allocation:
          |   Minimum:       41.899 MB (KS_eigenvector_complex on task  0)
          |   Maximum:       41.899 MB (KS_eigenvector_complex on task  0)
          |   Average:       41.899 MB
          Note:  These values currently only include a subset of arrays which are explicitly tracked.
          The "true" memory usage will be greater.

          Have a nice day.
------------------------------------------------------------
