------------------------------------------------------------
          Invoking FHI-aims ...

          When using FHI-aims, please cite the following reference:

          Volker Blum, Ralf Gehrke, Felix Hanke, Paula Havu,
          Ville Havu, Xinguo Ren, Karsten Reuter, and Matthias Scheffler,
          'Ab Initio Molecular Simulations with Numeric Atom-Centered Orbitals',
          Computer Physics Communications 180, 2175-2196 (2009)

          For any questions about FHI-aims, please visit the aimsclub website
          with its forums and wiki. Contributions to both the forums and the
          wiki are warmly encouraged - they are for you, and everyone is welcome there.

------------------------------------------------------------



  Date     :  20200319, Time     :  194115.147
  Time zero on CPU 1             :   0.115096000000000E+00  s.
  Internal wall clock time zero  :           353878875.147  s.

  FHI-aims created a unique identifier for this run for later identification
  aims_uuid : 8232F7D0-4736-48FC-A07E-B88A30BB8C80

  Build configuration of the current instance of FHI-aims
  -------------------------------------------------------
  FHI-aims version      : 200112
  Commit number         : 23daeca3f
  CMake host system     : Linux-3.10.0-693.21.1.el7.x86_64
  CMake version         : 3.13.3
  Fortran compiler      : /sw/installed/impi/2018.4.274-iccifort-2019.1.144-GCC-8.2.0-2.31.1/bin64/mpiifort (Intel) version 19.0.0.20181018
  Fortran compiler flags: -O3 -ip -fp-model precise
  C compiler            : /sw/installed/impi/2018.4.274-iccifort-2019.1.144-GCC-8.2.0-2.31.1/bin64/mpiicc (Intel) version 19.0.0.20181018
  C compiler flags      : -O3 -ip -fp-model precise
  Architecture          :
  Using MPI
  Using Scalapack
  Using C files
  Using LibXC
  Using SPGlib
  Using i-PI
  Using RLSY
  Linking against: /sw/installed/imkl/2019.1.144-iimpi-2019a/mkl/lib/intel64/libmkl_intel_lp64.so
                   /sw/installed/imkl/2019.1.144-iimpi-2019a/mkl/lib/intel64/libmkl_sequential.so
                   /sw/installed/imkl/2019.1.144-iimpi-2019a/mkl/lib/intel64/libmkl_core.so
                   /sw/installed/imkl/2019.1.144-iimpi-2019a/mkl/lib/intel64/libmkl_blacs_intelmpi_lp64.so
                   /sw/installed/imkl/2019.1.144-iimpi-2019a/mkl/lib/intel64/libmkl_scalapack_lp64.so

  Using       24 parallel tasks.
  Task        0 on host taurusi6551.taurus.hrsk.tu-dresden.de reporting.
  Task        1 on host taurusi6551.taurus.hrsk.tu-dresden.de reporting.
  Task        2 on host taurusi6551.taurus.hrsk.tu-dresden.de reporting.
  Task        3 on host taurusi6551.taurus.hrsk.tu-dresden.de reporting.
  Task        4 on host taurusi6551.taurus.hrsk.tu-dresden.de reporting.
  Task        5 on host taurusi6551.taurus.hrsk.tu-dresden.de reporting.
  Task        6 on host taurusi6551.taurus.hrsk.tu-dresden.de reporting.
  Task        7 on host taurusi6551.taurus.hrsk.tu-dresden.de reporting.
  Task        8 on host taurusi6551.taurus.hrsk.tu-dresden.de reporting.
  Task        9 on host taurusi6551.taurus.hrsk.tu-dresden.de reporting.
  Task       10 on host taurusi6551.taurus.hrsk.tu-dresden.de reporting.
  Task       11 on host taurusi6551.taurus.hrsk.tu-dresden.de reporting.
  Task       12 on host taurusi6551.taurus.hrsk.tu-dresden.de reporting.
  Task       13 on host taurusi6551.taurus.hrsk.tu-dresden.de reporting.
  Task       14 on host taurusi6551.taurus.hrsk.tu-dresden.de reporting.
  Task       15 on host taurusi6551.taurus.hrsk.tu-dresden.de reporting.
  Task       16 on host taurusi6551.taurus.hrsk.tu-dresden.de reporting.
  Task       17 on host taurusi6551.taurus.hrsk.tu-dresden.de reporting.
  Task       18 on host taurusi6551.taurus.hrsk.tu-dresden.de reporting.
  Task       19 on host taurusi6551.taurus.hrsk.tu-dresden.de reporting.
  Task       20 on host taurusi6551.taurus.hrsk.tu-dresden.de reporting.
  Task       21 on host taurusi6551.taurus.hrsk.tu-dresden.de reporting.
  Task       22 on host taurusi6551.taurus.hrsk.tu-dresden.de reporting.
  Task       23 on host taurusi6551.taurus.hrsk.tu-dresden.de reporting.

  Performing system and environment tests:
  | Environment variable OMP_NUM_THREADS correctly set to 1.
  | Maximum stacksize for task 0: unlimited
  | Maximum stacksize for task 1: unlimited
  | Maximum stacksize for task 2: unlimited
  | Maximum stacksize for task 3: unlimited
  | Maximum stacksize for task 4: unlimited
  | Maximum stacksize for task 5: unlimited
  | Maximum stacksize for task 6: unlimited
  | Maximum stacksize for task 7: unlimited
  | Maximum stacksize for task 8: unlimited
  | Maximum stacksize for task 9: unlimited
  | Maximum stacksize for task 10: unlimited
  | Maximum stacksize for task 11: unlimited
  | Maximum stacksize for task 12: unlimited
  | Maximum stacksize for task 13: unlimited
  | Maximum stacksize for task 14: unlimited
  | Maximum stacksize for task 15: unlimited
  | Maximum stacksize for task 16: unlimited
  | Maximum stacksize for task 17: unlimited
  | Maximum stacksize for task 18: unlimited
  | Maximum stacksize for task 19: unlimited
  | Maximum stacksize for task 20: unlimited
  | Maximum stacksize for task 21: unlimited
  | Maximum stacksize for task 22: unlimited
  | Maximum stacksize for task 23: unlimited
  | Current stacksize for task 0: unlimited
  | Current stacksize for task 1: unlimited
  | Current stacksize for task 2: unlimited
  | Current stacksize for task 3: unlimited
  | Current stacksize for task 4: unlimited
  | Current stacksize for task 5: unlimited
  | Current stacksize for task 6: unlimited
  | Current stacksize for task 7: unlimited
  | Current stacksize for task 8: unlimited
  | Current stacksize for task 9: unlimited
  | Current stacksize for task 10: unlimited
  | Current stacksize for task 11: unlimited
  | Current stacksize for task 12: unlimited
  | Current stacksize for task 13: unlimited
  | Current stacksize for task 14: unlimited
  | Current stacksize for task 15: unlimited
  | Current stacksize for task 16: unlimited
  | Current stacksize for task 17: unlimited
  | Current stacksize for task 18: unlimited
  | Current stacksize for task 19: unlimited
  | Current stacksize for task 20: unlimited
  | Current stacksize for task 21: unlimited
  | Current stacksize for task 22: unlimited
  | Current stacksize for task 23: unlimited
  | Checking for scalapack...
  | Testing pdtran()...
  | All pdtran() tests passed.

  Obtaining array dimensions for all initial allocations:
  
  -----------------------------------------------------------------------
  Parsing control.in (first pass over file, find array dimensions only).
  The contents of control.in will be repeated verbatim below
  unless switched off by setting 'verbatim_writeout .false.' .
  in the first line of control.in .
  -----------------------------------------------------------------------
  
  #===============================================================================
  # FHI-aims file: ./control.in
  # Created using the Atomic Simulation Environment (ASE)
  # Thu Mar 19 17:13:22 2020
  #===============================================================================
  xc                                 pbe
  # include_spin_orbit
  # vdw_correction_hirshfeld
  # many_body_dispersion_nl 	 beta=0.81
  spin                               none
  k_grid 	 	 21 21 1
  relativistic                       atomic_zora scalar
  ### SCF settings
  adjust_scf 	 always 	 3
  # frozen_core_scf 	 .true.
  # charge_mix_param  0.05
  # occupation_type 	 gaussian 	 0.01
  # sc_accuracy_eev   1E-3 	 	 # sum of eigenvalues convergence
  # sc_accuracy_etot  1E-6 	 	 # total energy convergence
  # sc_accuracy_rho   1E-3 	 	 # electron density convergence
  # elsi_restart 	 read_and_write 	 1000
  #===============================================================================
  
  ################################################################################
  #
  #  FHI-aims code project
  # Volker Blum, Fritz Haber Institute Berlin, 2009
  #
  #  Suggested "tight" defaults for C atom (to be pasted into control.in file)
  #
  ################################################################################
    species        C
  #     global species definitions
      nucleus             6
      mass                12.0107
  #
      l_hartree           6
  #
      cut_pot             4.0  2.0  1.0
      basis_dep_cutoff    1e-4
  #
      radial_base         34 7.0
      radial_multiplier   2
      angular_grids specified
        division   0.2187   50
        division   0.4416  110
        division   0.6335  194
        division   0.7727  302
        division   0.8772  434
  #      division   0.9334  590
  #      division   0.9924  770
  #      division   1.0230  974
  #      division   1.5020 1202
  #     outer_grid  974
        outer_grid  434
  ################################################################################
  #
  #  Definition of "minimal" basis
  #
  ################################################################################
  #     valence basis states
      valence      2  s   2.
      valence      2  p   2.
  #     ion occupancy
      ion_occ      2  s   1.
      ion_occ      2  p   1.
  ################################################################################
  #
  #  Suggested additional basis functions. For production calculations,
  #  uncomment them one after another (the most important basis functions are
  #  listed first).
  #
  #  Constructed for dimers: 1.0 A, 1.25 A, 1.5 A, 2.0 A, 3.0 A
  #
  ################################################################################
  #  "First tier" - improvements: -1214.57 meV to -155.61 meV
       hydro 2 p 1.7
       hydro 3 d 6
       hydro 2 s 4.9
  #  "Second tier" - improvements: -67.75 meV to -5.23 meV
       hydro 4 f 9.8
       hydro 3 p 5.2
       hydro 3 s 4.3
       hydro 5 g 14.4
       hydro 3 d 6.2
  #  "Third tier" - improvements: -2.43 meV to -0.60 meV
  #     hydro 2 p 5.6
  #     hydro 2 s 1.4
  #     hydro 3 d 4.9
  #     hydro 4 f 11.2
  #  "Fourth tier" - improvements: -0.39 meV to -0.18 meV
  #     hydro 2 p 2.1
  #     hydro 5 g 16.4
  #     hydro 4 d 13.2
  #     hydro 3 s 13.6
  #     hydro 4 f 17.6
  #  Further basis functions - improvements: -0.08 meV and below
  #     hydro 3 s 2
  #     hydro 3 p 6
  #     hydro 4 d 20
  ################################################################################
  #
  # For methods that use the localized form of the "resolution of identity" for
  # the two-electron Coulomb operator (RI_method LVL), particularly Hartree-Fock and
  # hybrid density functional calculations, the highest accuracy can be obtained by
  # uncommenting the line beginning with "for_aux"  below, thus adding an extra g radial
  # function to the construction of the product basis set for the expansion.
  # See Ref. New J. Phys. 17, 093020 (2015) for more information, particularly Figs. 1 and 6.
  #
  ################################################################################
  #
  # for_aux hydro 5 g 6.0
  
  -----------------------------------------------------------------------
  Completed first pass over input file control.in .
  -----------------------------------------------------------------------
  
  
  -----------------------------------------------------------------------
  Parsing geometry.in (first pass over file, find array dimensions only).
  The contents of geometry.in will be repeated verbatim below
  unless switched off by setting 'verbatim_writeout .false.' .
  in the first line of geometry.in .
  -----------------------------------------------------------------------
  
  #=======================================================
  # FHI-aims file: ./geometry.in
  # Created using the Atomic Simulation Environment (ASE)
  # Thu Mar 19 17:13:22 2020
  #=======================================================
  lattice_vector 2.4599999985668495 0.0000000000000000 0.0000000000000000
  lattice_vector -1.2299999992834247 2.1304224920685741 0.0000000000000000
  lattice_vector 0.0000000000000000 0.0000000000000000 100.0000000000000000
  atom_frac 0.3333333333333332 0.0000000000000000 0.5000000000000000 C
  atom_frac 0.0000000000000000 0.3333333333333334 0.5000000000000000 C
  
  -----------------------------------------------------------------------
  Completed first pass over input file geometry.in .
  -----------------------------------------------------------------------
  

  Basic array size parameters:
  | Number of species                 :        1
  | Number of atoms                   :        2
  | Number of lattice vectors         :        3
  | Max. basis fn. angular momentum   :        4
  | Max. atomic/ionic basis occupied n:        2
  | Max. number of basis fn. types    :        2
  | Max. radial fns per species/type  :        8
  | Max. logarithmic grid size        :     1277
  | Max. radial integration grid size :       69
  | Max. angular integration grid size:      434
  | Max. angular grid division number :        8
  | Radial grid for Hartree potential :     1277
  | Number of spin channels           :        1

------------------------------------------------------------
          Reading file control.in.
------------------------------------------------------------
  XC: Using PBE gradient-corrected functionals.
  Spin treatment: No spin polarisation.
  Found k-point grid:        21        21         1
  Scalar relativistic treatment of kinetic energy: on-site free-atom approximation to ZORA.
  S.C.F. convergence parameters will be adjusted in iteration number     3 of each new s.c.f. cycle.
 
  Reading configuration options for species C                   .
  | Found nuclear charge :   6.0000
  | Found atomic mass :    12.0107000000000      amu
  | Found l_max for Hartree potential  :   6
  | Found cutoff potl. onset [A], width [A], scale factor :    4.00000    2.00000    1.00000
  | Threshold for basis-dependent cutoff potential is   0.100000E-03
  | Found data for basic radial integration grid :    34 points, outermost radius =    7.000 A
  | Found multiplier for basic radial grid :   2
  | Found angular grid specification: user-specified.
  | Specified grid contains     6 separate shells.
  | Check grid settings after all constraints further below.
  | Found free-atom valence shell :  2 s   2.000
  | Found free-atom valence shell :  2 p   2.000
  | No ionic wave fns used. Skipping ion_occ.
  | No ionic wave fns used. Skipping ion_occ.
  | Found hydrogenic basis function :  2 p   1.700
  | Found hydrogenic basis function :  3 d   6.000
  | Found hydrogenic basis function :  2 s   4.900
  | Found hydrogenic basis function :  4 f   9.800
  | Found hydrogenic basis function :  3 p   5.200
  | Found hydrogenic basis function :  3 s   4.300
  | Found hydrogenic basis function :  5 g  14.400
  | Found hydrogenic basis function :  3 d   6.200
  Species C                   : Missing cutoff potential type.
  Defaulting to exp(1/x)/(1-x)^2 type cutoff potential.
  Species C : No 'logarithmic' tag. Using default grid for free atom:
  | Default logarithmic grid data [bohr] : 0.1000E-03 0.1000E+03 0.1012E+01
  Species C : On-site basis accuracy parameter (for Gram-Schmidt orthonormalisation) not specified.
  Using default value basis_acc =  0.1000000E-03.
  Species C                   : Using default innermost maximum threshold i_radial=  2 for radial functions.
  Species C                   : Default cutoff onset for free atom density etc. : 0.40000000E+01 AA.
  Species C                   : Basic radial grid will be enhanced according to radial_multiplier =   2, to contain    69 grid points.
 
  Finished reading input file 'control.in'. Consistency checks are next.
 
  MPI_IN_PLACE appears to work with this MPI implementation.
  | Keeping use_mpi_in_place .true. (see manual).
  Target number of points in a grid batch is not set. Defaulting to  100
  Method for grid partitioning is not set. Defaulting to parallel hash+maxmin partitioning.
  Batch size limit is not set. Defaulting to    200
  By default, will store active basis functions for each batch.
  If in need of memory, prune_basis_once .false. can be used to disable this option.
  communication_type for Hartree potential was not specified.
  Defaulting to calc_hartree .
  Defaulting to Pulay charge density mixer.
  Pulay mixer: Number of relevant iterations not set.
  Defaulting to    8 iterations.
  Pulay mixer: Number of initial linear mixing iterations not set.
  Defaulting to    0 iterations.
  Work space size for distributed Hartree potential not set.
  Defaulting to   0.200000E+03 MB.
  Mixing parameter for charge density mixing has not been set.
  Using default: charge_mix_param =     0.0500.
  The mixing parameter will be adjusted in iteration number     3 of each s.c.f. cycle (i.e., each geometry step).
  Algorithm-dependent basis array size parameters:
  | n_max_pulay                         :        8
  Maximum number of self-consistency iterations not provided.
  Presetting  1000 iterations.
  Presetting      1001 iterations before the initial mixing cycle
  is restarted anyway using the sc_init_iter criterion / keyword.
  Presetting a factor      1.000 between actual scf density residual
  and density convergence criterion sc_accuracy_rho below which sc_init_iter
  takes no effect.
 * No s.c.f. convergence criteria (sc_accuracy_*) were provided in control.in.
 * The run will proceed with a reasonable default guess, but please check whether.
 * the s.c.f. cycles seem to take too much or too little time.
  Calculation of forces was not defined in control.in. No forces will be calculated.
  Geometry relaxation not requested: no relaxation will be performed.
 * Notice: The s.c.f. convergence criterion sc_accuracy_rho was not provided.
 * We used to stop in this case, and ask the user to provide reasonable
 * scf convergence criteria. However, this led some users to employ criteria
 * that led to extremely long run times, e.g., for simple relaxation.
 * We now preset a default value for sc_accuracy_rho if it is not set.
 * You may still wish to check if this setting is too tight or too loose for your needs.
 * Based on n_atoms, FHI-aims chose sc_accuracy_rho =  0.100000E-05 .
  No accuracy limit for integral partition fn. given. Defaulting to  0.1000E-14.
  No threshold value for u(r) in integrations given. Defaulting to  0.1000E-05.
  No occupation type (smearing scheme) given. Defaulting to Gaussian broadening, width =  0.1000E-01 eV.
  The width will be adjusted in iteration number     3 of each s.c.f. cycle (i.e., each geometry step).
  S.C.F. convergence parameters will be adjusted in iteration number     3 of the first full s.c.f. cycle only.
  No accuracy for occupation numbers given. Defaulting to  0.1000E-12.
  No threshold value for occupation numbers given. Defaulting to  0.0000E+00.
  No accuracy for fermi level given. Defaulting to  0.1000E-19.
  Maximum # of iterations to find E_F not set. Defaulting to  200.
  Preferred method for the eigenvalue solver ('KS_method') not specified in 'control.in'.
  Defaulting to serial version, LAPACK (via ELSI), since more k-points than CPUs available.
  Will not use alltoall communication since running on < 1024 CPUs.
  Threshold for basis singularities not set.
  Default threshold for basis singularities:  0.1000E-04
  partition_type (choice of integration weights) for integrals was not specified.
  | Using a version of the partition function of Stratmann and coworkers ('stratmann_sparse').
  | At each grid point, the set of atoms used to build the partition table is smoothly restricted to
  | only those atoms whose free-atom density would be non-zero at that grid point.
  Partitioning for Hartree potential was not defined. Using partition_type for integrals.
  | Adjusted default value of keyword multip_moments_threshold to:       0.10000000E-11
  | This value may affect high angular momentum components of the Hartree potential in periodic systems.
  Angular momentum expansion for Kerker preconditioner not set explicitly.
  | Using default value of   0
  No explicit requirement for turning off preconditioner.
  | By default, it will be turned off when the charge convergence reaches
  | sc_accuracy_rho  =   0.100000E-05
  No special mixing parameter while Kerker preconditioner is on.
  Using default: charge_mix_param =     0.0500.
  No q(lm)/r^(l+1) cutoff set for long-range Hartree potential.
  | Using default value of  0.100000E-09 .
  | Verify using the multipole_threshold keyword.
  Defaulting to new monopole extrapolation.
  Density update method: automatic selection selected.
  Using density matrix based charge density update.
  Using density matrix based charge density update.
  Using packed matrix style: index .
  Defaulting to use time-reversal symmetry for k-point grid.
  Charge integration errors on the 3D integration grid will be compensated
  by explicit normalization and distribution of residual charges.
  Use the "compensate_multipole_errors" flag to change this behaviour.
------------------------------------------------------------


------------------------------------------------------------
          Reading geometry description geometry.in.
------------------------------------------------------------
  Input structure read successfully.
  The structure contains        2 atoms,  and a total of         12.000 electrons.

  Input geometry:
  | Unit cell:
  |        2.46000000        0.00000000        0.00000000
  |       -1.23000000        2.13042249        0.00000000
  |        0.00000000        0.00000000      100.00000000
  | Atomic structure:
  |       Atom                x [A]            y [A]            z [A]
  |    1: Species C             0.82000000        0.00000000       50.00000000
  |    2: Species C            -0.41000000        0.71014083       50.00000000

  Lattice parameters for 3D lattice (in Angstroms) :     2.460000    2.460000  100.000000
  Angle(s) between unit vectors (in degrees)       :    90.000000   90.000000  120.000000

  | The smallest distance between any two atoms is         1.42028166 AA.
  | The first atom of this pair is atom number                      1 .
  | The second atom of this pair is atom number                     2 .
  | Wigner-Seitz cell of the first atom image           0     0     0 .
  | (The Wigner-Seitz cell of the second atom is 0 0 0  by definition.)

  Symmetry information by spglib:
  | Precision set to  0.1E-04
  | Number of Operations  : 24
  | Space group           : 191
  | International         : P6/mmm
  | Schoenflies           : D6h^1

  Quantities derived from the lattice vectors:
  | Reciprocal lattice vector 1:  2.554140  1.474634  0.000000
  | Reciprocal lattice vector 2:  0.000000  2.949267  0.000000
  | Reciprocal lattice vector 3:  0.000000  0.000000  0.062832
  | Unit cell volume                               :   0.524084E+03  A^3

  Range separation radius for Ewald summation (hartree_convergence_parameter):      5.00000000 bohr.

  Fractional coordinates:
                         L1                L2                L3
       atom_frac         0.33333333        0.00000000        0.50000000  C
       atom_frac         0.00000000        0.33333333        0.50000000  C

  Number of empty states per atom not set in control.in - providing a guess from actual geometry.
  | Total number of empty states used during s.c.f. cycle:        6
  If you use a very high smearing, use empty_states (per atom!) in control.in to increase this value.

  Structure-dependent array size parameters: 
  | Maximum number of distinct radial functions  :       11
  | Maximum number of basis functions            :       78
  | Number of Kohn-Sham states (occupied + empty):       12
------------------------------------------------------------

------------------------------------------------------------
          Preparing all fixed parts of the calculation.
------------------------------------------------------------
  Determining machine precision:
    2.225073858507201E-308
  Setting up grids for atomic and cluster calculations.

  Creating wave function, potential, and density for free atoms.

  Species: C

  List of occupied orbitals and eigenvalues:
    n    l              occ      energy [Ha]    energy [eV]
    1    0           2.0000       -10.049212      -273.4530
    2    0           2.0000        -0.504761       -13.7352
    2    1           2.0000        -0.193631        -5.2690

  Creating fixed part of basis set: Ionic, confined, hydrogenic.
 
  C                    hydrogenic:
 
  List of hydrogenic basis orbitals: 
    n    l      effective z      eigenvalue [eV]  inner max. [A]     outer max. [A]     outer radius [A]   
    2    1         1.700000        -9.8152           1.245706           1.245706           5.401630
    3    2         6.000000       -54.4226           0.792453           0.792453           4.178599
    2    0         4.900000       -81.6681           0.082559           0.562749           3.353238
    4    3         9.800000       -81.6681           0.863254           0.863254           4.028125
    3    1         5.200000       -40.8774           0.305389           1.215618           4.898362
    3    0         4.300000       -27.9508           0.091041           1.610311           5.401630
    5    4        14.400000      -112.8510           0.917666           0.917666           3.883070
    3    2         6.200000       -58.1113           0.763917           0.763917           4.077671
 

  Adding cutoff potential to free-atom effective potential.
  Creating atomic-like basis functions for current effective potential.

  Species C                   :

  List of atomic basis orbitals and eigenvalues:
    n    l      energy [Ha]    energy [eV]    outer radius [A]
    1    0       -10.049212      -273.4530       1.934409
    2    0        -0.504761       -13.7352       5.271162
    2    1        -0.193631        -5.2690       5.401630

  Assembling full basis from fixed parts.
  | Species C :   atomic orbital   1 s accepted.
  | Species C :    hydro orbital   2 s accepted.
  | Species C :   atomic orbital   2 s accepted.
  | Species C :    hydro orbital   3 s accepted.
  | Species C :    hydro orbital   3 p accepted.
  | Species C :   atomic orbital   2 p accepted.
  | Species C :    hydro orbital   2 p accepted.
  | Species C :    hydro orbital   3 d accepted.
  | Species C :    hydro orbital   3 d accepted.
  | Species C :    hydro orbital   4 f accepted.
  | Species C :    hydro orbital   5 g accepted.
 
  Basis size parameters after reduction:
  | Total number of radial functions:       11
  | Total number of basis functions :       78
 
  Per-task memory consumption for arrays in subroutine allocate_ext:
  |           3.598348MB.
  Testing on-site integration grid accuracy.
  |  Species  Function  <phi|h_atom|phi> (log., in eV)  <phi|h_atom|phi> (rad., in eV)
           1        1               -273.4529725981               -273.4529710451
           1        2                -10.7721037329                -10.7721022102
           1        3                 17.6044132585                 17.6044162052
           1        4                 53.7706460564                 53.7706913681
           1        5                 15.0973290351                 15.0973256011
           1        6                  3.8545134677                  3.8545724657
           1        7                 12.1156992586                 12.1182024423
           1        8                 29.4352039288                 29.4352041805
           1        9                 54.8741144697                 54.8740268719
           1       10                 59.3556032036                 59.3556031370
           1       11                 93.4551837140                 93.4551837996

  Preparing densities etc. for the partition functions (integrals / Hartree potential).

  Preparations completed.
  max(cpu_time)          :      0.151 s.
  Wall clock time (cpu1) :      0.173 s.
------------------------------------------------------------

------------------------------------------------------------
          Begin self-consistency loop: Initialization.

          Date     :  20200319, Time     :  194115.655
------------------------------------------------------------

  Initializing index lists of integration centers etc. from given atomic structure:
  Mapping all atomic coordinates to central unit cell.

  Initializing the k-points
  Using symmetry for reducing the k-points
  | k-points reduced from:      441 to      221
  | Number of k-points                             :       221
  The eigenvectors in the calculations are COMPLEX.
  | K-points in task   0:         9
  | K-points in task   1:        10
  | K-points in task   2:        10
  | K-points in task   3:        10
  | K-points in task   4:        10
  | K-points in task   5:        10
  | K-points in task   6:         9
  | K-points in task   7:         9
  | K-points in task   8:         9
  | K-points in task   9:         9
  | K-points in task  10:         9
  | K-points in task  11:         9
  | K-points in task  12:         9
  | K-points in task  13:         9
  | K-points in task  14:         9
  | K-points in task  15:         9
  | K-points in task  16:         9
  | K-points in task  17:         9
  | K-points in task  18:         9
  | K-points in task  19:         9
  | K-points in task  20:         9
  | K-points in task  21:         9
  | K-points in task  22:         9
  | K-points in task  23:         9
  | Number of basis functions in the Hamiltonian integrals :      3626
  | Number of basis functions in a single unit cell        :        78
  | Number of centers in hartree potential         :       410
  | Number of centers in hartree multipole         :       208
  | Number of centers in electron density summation:       174
  | Number of centers in basis integrals           :       252
  | Number of centers in integrals                 :       144
  | Number of centers in hamiltonian               :       174
  | Consuming        442 KiB for k_phase.
  | Number of super-cells (origin) [n_cells]                     :        1083
  | Number of super-cells (after PM_index) [n_cells]             :         128
  | Number of super-cells in hamiltonian [n_cells_in_hamiltonian]:          90
  | Size of matrix packed + index [n_hamiltonian_matrix_size] :      149674
  | Estimated reciprocal-space cutoff momentum G_max:         1.90186217 bohr^-1 .
  | Reciprocal lattice points for long-range Hartree potential:     504
  Partitioning the integration grid into batches with parallel hashing+maxmin method.
  | Number of batches:      501
  | Maximal batch size:     176
  | Minimal batch size:      26
  | Average batch size:      72.168
  | Standard deviation of batch sizes:      19.259

  Integration load balanced across    24 MPI tasks.
  Work distribution over tasks is as follows:
  Task     0 has       1546 integration points.
  Task     1 has       1492 integration points.
  Task     2 has       1487 integration points.
  Task     3 has       1490 integration points.
  Task     4 has       1493 integration points.
  Task     5 has       1491 integration points.
  Task     6 has       1489 integration points.
  Task     7 has       1538 integration points.
  Task     8 has       1485 integration points.
  Task     9 has       1493 integration points.
  Task    10 has       1488 integration points.
  Task    11 has       1488 integration points.
  Task    12 has       1531 integration points.
  Task    13 has       1482 integration points.
  Task    14 has       1496 integration points.
  Task    15 has       1536 integration points.
  Task    16 has       1484 integration points.
  Task    17 has       1511 integration points.
  Task    18 has       1555 integration points.
  Task    19 has       1531 integration points.
  Task    20 has       1494 integration points.
  Task    21 has       1495 integration points.
  Task    22 has       1514 integration points.
  Task    23 has       1547 integration points.
  Initializing partition tables, free-atom densities, potentials, etc. across the integration grid (initialize_grid_storage).
  | initialize_grid_storage: Actual outermost partition radius vs. multipole_radius_free
  | (-- VB: in principle, multipole_radius_free should be larger, hence this output)
  | Species        1: Confinement radius =              6.000000000000000 AA, multipole_radius_free =              6.029870734432609 AA.
  | Species        1: outer_partition_radius set to              6.029870734432609 AA .
  | The sparse table of interatomic distances needs        398.45 kbyte instead of       508.03 kbyte of memory.
  | Net number of integration points:    36156
  | of which are non-zero points    :    27542
  | Numerical average free-atom electrostatic potential    :     -0.47107749 eV
  Renormalizing the initial density to the exact electron count on the 3D integration grid.
  | Initial density: Formal number of electrons (from input files) :      12.0000000000
  | Integrated number of electrons on 3D grid     :      12.0000182905
  | Charge integration error                      :       0.0000182905
  | Normalization factor for density and gradient :       0.9999984758
  Renormalizing the free-atom superposition density to the exact electron count on the 3D integration grid.
  | Formal number of electrons (from input files) :      12.0000000000
  | Integrated number of electrons on 3D grid     :      12.0000182905
  | Charge integration error                      :       0.0000182905
  | Normalization factor for density and gradient :       0.9999984758
  Obtaining max. number of non-zero basis functions in each batch (get_n_compute_maxes).
  | Maximal number of non-zero basis functions:     1103 in task     0
  | Maximal number of non-zero basis functions:     1091 in task     1
  | Maximal number of non-zero basis functions:     1091 in task     2
  | Maximal number of non-zero basis functions:     1080 in task     3
  | Maximal number of non-zero basis functions:     1091 in task     4
  | Maximal number of non-zero basis functions:     1090 in task     5
  | Maximal number of non-zero basis functions:     1078 in task     6
  | Maximal number of non-zero basis functions:     1080 in task     7
  | Maximal number of non-zero basis functions:     1101 in task     8
  | Maximal number of non-zero basis functions:     1109 in task     9
  | Maximal number of non-zero basis functions:     1099 in task    10
  | Maximal number of non-zero basis functions:     1088 in task    11
  | Maximal number of non-zero basis functions:     1104 in task    12
  | Maximal number of non-zero basis functions:     1083 in task    13
  | Maximal number of non-zero basis functions:     1085 in task    14
  | Maximal number of non-zero basis functions:     1103 in task    15
  | Maximal number of non-zero basis functions:     1090 in task    16
  | Maximal number of non-zero basis functions:     1075 in task    17
  | Maximal number of non-zero basis functions:     1083 in task    18
  | Maximal number of non-zero basis functions:     1081 in task    19
  | Maximal number of non-zero basis functions:     1091 in task    20
  | Maximal number of non-zero basis functions:     1105 in task    21
  | Maximal number of non-zero basis functions:     1073 in task    22
  | Maximal number of non-zero basis functions:     1083 in task    23
  Allocating        0.129 MB for KS_eigenvector_complex
  Integrating Hamiltonian matrix: batch-based integration.
  Time summed over all CPUs for integration: real work        7.435 s, elapsed        8.056 s
  Integrating overlap matrix.
  Time summed over all CPUs for integration: real work        5.342 s, elapsed        5.812 s
  Decreasing sparse matrix size:
  | Tolerance:  0.1000E-12
  Hamiltonian matrix
  | Array has    73231 nonzero elements out of   149674 elements
  | Sparsity factor is 0.511
  Overlap matrix
  | Array has    69763 nonzero elements out of   149674 elements
  | Sparsity factor is 0.534
  New size of hamiltonian matrix:       74308

  Updating Kohn-Sham eigenvalues and eigenvectors using ELSI and the (modified) LAPACK eigensolver.
  Singularity check in k-point 24, task 0 (analysis for other k-points/tasks may follow below):
  Overlap matrix is not singular
  | Lowest and highest eigenvalues :  0.1149E-03,  0.1197E+02
  Finished singularity check of overlap matrix
  | Time :     0.018 s
  Starting LAPACK eigensolver
  Finished Cholesky decomposition
  | Time :     0.014 s
  Finished transformation to standard eigenproblem
  | Time :     0.000 s
  Finished solving standard eigenproblem
  | Time :     0.002 s
  Finished back-transformation of eigenvectors
  | Time :     0.000 s

  Obtaining occupation numbers and chemical potential using ELSI.
  | Chemical potential (Fermi level):    -8.21981035 eV
  Writing Kohn-Sham eigenvalues.
  K-point:       1 at    0.000000    0.000000    0.000000 (in units of recip. lattice)

  State    Occupation    Eigenvalue [Ha]    Eigenvalue [eV]
      1       2.00000         -10.166487         -276.64418
      2       2.00000         -10.165529         -276.61812
      3       2.00000          -1.047179          -28.49519
      4       2.00000          -0.571675          -15.55606
      5       2.00000          -0.468419          -12.74633
      6       2.00000          -0.468419          -12.74633
      7       0.00000          -0.029483           -0.80227
      8       0.00000          -0.029482           -0.80224
      9       0.00000           0.002577            0.07013
     10       0.00000           0.029472            0.80198
     11       0.00000           0.097032            2.64039
     12       0.00000           0.135786            3.69493

  What follows are estimated values for band gap, HOMO, LUMO, etc.
  | They are estimated on a discrete k-point grid and not necessarily exact.
  | For converged numbers, create a DOS and/or band structure plot on a denser k-grid.

  Highest occupied state (VBM) at     -8.21981067 eV (relative to internal zero)
  | Occupation number:      1.00003527
  | K-point:     188 at    0.666667    0.666667    0.000000 (in units of recip. lattice)

  Lowest unoccupied state (CBM) at    -8.21981004 eV (relative to internal zero)
  | Occupation number:      0.99996473
  | K-point:     188 at    0.666667    0.666667    0.000000 (in units of recip. lattice)

  ESTIMATED overall HOMO-LUMO gap:      0.00000063 eV between HOMO at k-point 188 and LUMO at k-point 188
  | This appears to be a direct band gap.
  However, this system has fractional occupation numbers. Since we use a finite k-point grid,
  this material is metallic within the approximate finite broadening function (occupation_type)
  applied to determine the occupation numbers.
  Calculating total energy contributions from superposition of free atom densities.

  Total energy components:
  | Sum of eigenvalues            :         -45.99571936 Ha       -1251.60720497 eV
  | XC energy correction          :         -10.69815894 Ha        -291.11171634 eV
  | XC potential correction       :          13.74328821 Ha         373.97389966 eV
  | Free-atom electrostatic energy:         -33.32005150 Ha        -906.68473292 eV
  | Hartree energy correction     :           0.00000000 Ha           0.00000000 eV
  | Entropy correction            :          -0.00000094 Ha          -0.00002559 eV
  | ---------------------------
  | Total energy                  :         -76.27064160 Ha       -2075.42975456 eV
  | Total energy, T -> 0          :         -76.27064254 Ha       -2075.42978015 eV  <-- do not rely on this value for anything but (periodic) metals
  | Electronic free energy        :         -76.27064348 Ha       -2075.42980574 eV

  Derived energy quantities:
  | Kinetic energy                :          75.93587986 Ha        2066.32042422 eV
  | Electrostatic energy          :        -141.50836252 Ha       -3850.63846244 eV
  | Energy correction for multipole
  | error in Hartree potential    :           0.00000000 Ha           0.00000000 eV
  | Sum of eigenvalues per atom                           :        -625.80360248 eV
  | Total energy (T->0) per atom                          :       -1037.71489008 eV  <-- do not rely on this value for anything but (periodic) metals
  | Electronic free energy per atom                       :       -1037.71490287 eV
  Initialize hartree_potential_storage
  Max. number of atoms included in rho_multipole:            2

  End scf initialization - timings             :  max(cpu_time)    wall_clock(cpu1)
  | Time for scf. initialization               :        1.660 s           1.698 s
  | Boundary condition initialization          :        0.770 s           0.773 s
  | Integration                                :        0.589 s           0.593 s
  | Solution of K.-S. eqns.                    :        0.045 s           0.066 s
  | Grid partitioning                          :        0.132 s           0.133 s
  | Preloading free-atom quantities on grid    :        0.009 s           0.009 s
  | Free-atom superposition energy             :        0.008 s           0.008 s
  | Total energy evaluation                    :        0.000 s           0.001 s

  Partial memory accounting:
  | Current value for overall tracked memory usage:
  |   Minimum:        1.546 MB (on task  0)
  |   Maximum:        1.561 MB (on task  1)
  |   Average:        1.549 MB
  | Peak value for overall tracked memory usage:
  |   Minimum:       16.115 MB (on task 22 after allocating wave)
  |   Maximum:       16.860 MB (on task  9 after allocating wave)
  |   Average:       16.465 MB
  | Largest tracked array allocation so far:
  |   Minimum:        8.784 MB (hamiltonian_shell on task 22)
  |   Maximum:        9.383 MB (hamiltonian_shell on task  9)
  |   Average:        9.063 MB
  Note:  These values currently only include a subset of arrays which are explicitly tracked.
  The "true" memory usage will be greater.
------------------------------------------------------------

------------------------------------------------------------
          Begin self-consistency iteration #    1

  Date     :  20200319, Time     :  194117.356
------------------------------------------------------------
  Evaluating new KS density using the density matrix
  Evaluating density matrix
  Time summed over all CPUs for getting density from density matrix: real work       13.432 s, elapsed       14.927 s
  Integration grid: deviation in total charge (<rho> - N_e) =   2.238210E-13
  Pulay mixing of updated and previous charge densities.
  Renormalizing the density to the exact electron count on the 3D integration grid.
  | Formal number of electrons (from input files) :      12.0000000000
  | Integrated number of electrons on 3D grid     :      11.9997407533
  | Charge integration error                      :      -0.0002592467
  | Normalization factor for density and gradient :       1.0000216044

  Evaluating partitioned Hartree potential by multipole expansion.
  | Original multipole sum: apparent total charge =   0.394221E-14
  | Sum of charges compensated after spline to logarithmic grids =   0.560087E-07
  | Analytical far-field extrapolation by fixed multipoles:
  | Hartree multipole sum: apparent total charge =   0.000000E+00
  Summing up the Hartree potential.
  Time summed over all CPUs for potential: real work        2.551 s, elapsed        2.731 s
  | RMS charge density error from multipole expansion :   0.370963E-03
  | Average real-space part of the electrostatic potential :      0.00009005 eV

  Integrating Hamiltonian matrix: batch-based integration.
  Time summed over all CPUs for integration: real work        6.741 s, elapsed        7.298 s

  Updating Kohn-Sham eigenvalues and eigenvectors using ELSI and the (modified) LAPACK eigensolver.
  Starting LAPACK eigensolver
  Finished Cholesky decomposition
  | Time :     0.000 s
  Finished transformation to standard eigenproblem
  | Time :     0.000 s
  Finished solving standard eigenproblem
  | Time :     0.001 s
  Finished back-transformation of eigenvectors
  | Time :     0.000 s

  Obtaining occupation numbers and chemical potential using ELSI.
  | Chemical potential (Fermi level):    -7.97905217 eV
  Writing Kohn-Sham eigenvalues.
  K-point:       1 at    0.000000    0.000000    0.000000 (in units of recip. lattice)

  State    Occupation    Eigenvalue [Ha]    Eigenvalue [eV]
      1       2.00000         -10.151621         -276.23965
      2       2.00000         -10.150662         -276.21357
      3       2.00000          -1.036902          -28.21554
      4       2.00000          -0.563566          -15.33542
      5       2.00000          -0.456458          -12.42084
      6       2.00000          -0.456458          -12.42084
      7       0.00000          -0.018555           -0.50491
      8       0.00000          -0.018554           -0.50488
      9       0.00000           0.006290            0.17115
     10       0.00000           0.032008            0.87099
     11       0.00000           0.107276            2.91914
     12       0.00000           0.146286            3.98066

  What follows are estimated values for band gap, HOMO, LUMO, etc.
  | They are estimated on a discrete k-point grid and not necessarily exact.
  | For converged numbers, create a DOS and/or band structure plot on a denser k-grid.

  Highest occupied state (VBM) at     -7.97905237 eV (relative to internal zero)
  | Occupation number:      1.00002349
  | K-point:     188 at    0.666667    0.666667    0.000000 (in units of recip. lattice)

  Lowest unoccupied state (CBM) at    -7.97905196 eV (relative to internal zero)
  | Occupation number:      0.99997651
  | K-point:     188 at    0.666667    0.666667    0.000000 (in units of recip. lattice)

  ESTIMATED overall HOMO-LUMO gap:      0.00000042 eV between HOMO at k-point 188 and LUMO at k-point 188
  | This appears to be a direct band gap.
  However, this system has fractional occupation numbers. Since we use a finite k-point grid,
  this material is metallic within the approximate finite broadening function (occupation_type)
  applied to determine the occupation numbers.

  Total energy components:
  | Sum of eigenvalues            :         -45.85305301 Ha       -1247.72505586 eV
  | XC energy correction          :         -10.70528071 Ha        -291.30550962 eV
  | XC potential correction       :          13.75253283 Ha         374.22545860 eV
  | Free-atom electrostatic energy:         -33.32005150 Ha        -906.68473292 eV
  | Hartree energy correction     :          -0.13948747 Ha          -3.79564719 eV
  | Entropy correction            :          -0.00000094 Ha          -0.00002559 eV
  | ---------------------------
  | Total energy                  :         -76.26533986 Ha       -2075.28548698 eV
  | Total energy, T -> 0          :         -76.26534080 Ha       -2075.28551257 eV  <-- do not rely on this value for anything but (periodic) metals
  | Electronic free energy        :         -76.26534174 Ha       -2075.28553815 eV

  Derived energy quantities:
  | Kinetic energy                :          75.96212537 Ha        2067.03460091 eV
  | Electrostatic energy          :        -141.52218452 Ha       -3851.01457828 eV
  | Energy correction for multipole
  | error in Hartree potential    :          -0.00052305 Ha          -0.01423283 eV
  | Sum of eigenvalues per atom                           :        -623.86252793 eV
  | Total energy (T->0) per atom                          :       -1037.64275628 eV  <-- do not rely on this value for anything but (periodic) metals
  | Electronic free energy per atom                       :       -1037.64276908 eV

  Self-consistency convergence accuracy:
  | Change of charge density      :  0.2343E+00
  | Change of sum of eigenvalues  :  0.3882E+01 eV
  | Change of total energy        :  0.1443E+00 eV

  End self-consistency iteration #     1       :  max(cpu_time)    wall_clock(cpu1)
  | Time for this iteration                    :        1.117 s           1.117 s
  | Charge density update                      :        0.627 s           0.627 s
  | Density mixing & preconditioning           :        0.030 s           0.030 s
  | Hartree multipole update                   :        0.002 s           0.001 s
  | Hartree multipole summation                :        0.125 s           0.126 s
  | Integration                                :        0.310 s           0.310 s
  | Solution of K.-S. eqns.                    :        0.023 s           0.023 s
  | Total energy evaluation                    :        0.000 s           0.000 s

  Partial memory accounting:
  | Current value for overall tracked memory usage:
  |   Minimum:        1.546 MB (on task  0)
  |   Maximum:        1.561 MB (on task  1)
  |   Average:        1.549 MB
  | Peak value for overall tracked memory usage:
  |   Minimum:       18.975 MB (on task 22 after allocating gradient_basis_wave)
  |   Maximum:       19.864 MB (on task  9 after allocating gradient_basis_wave)
  |   Average:       19.393 MB
  | Largest tracked array allocation so far:
  |   Minimum:        8.784 MB (hamiltonian_shell on task 22)
  |   Maximum:        9.383 MB (hamiltonian_shell on task  9)
  |   Average:        9.063 MB
  Note:  These values currently only include a subset of arrays which are explicitly tracked.
  The "true" memory usage will be greater.
------------------------------------------------------------

------------------------------------------------------------
          Begin self-consistency iteration #    2

  Date     :  20200319, Time     :  194118.474
------------------------------------------------------------
  Evaluating new KS density using the density matrix
  Evaluating density matrix
  Time summed over all CPUs for getting density from density matrix: real work       13.255 s, elapsed       14.359 s
  Integration grid: deviation in total charge (<rho> - N_e) =   2.184919E-13
  Pulay mixing of updated and previous charge densities.
  Renormalizing the density to the exact electron count on the 3D integration grid.
  | Formal number of electrons (from input files) :      12.0000000000
  | Integrated number of electrons on 3D grid     :      11.9956204023
  | Charge integration error                      :      -0.0043795977
  | Normalization factor for density and gradient :       1.0003650997

  Evaluating partitioned Hartree potential by multipole expansion.
  | Original multipole sum: apparent total charge =   0.570249E-15
  | Sum of charges compensated after spline to logarithmic grids =   0.756296E-06
  | Analytical far-field extrapolation by fixed multipoles:
  | Hartree multipole sum: apparent total charge =   0.000000E+00
  Summing up the Hartree potential.
  Time summed over all CPUs for potential: real work        2.952 s, elapsed        3.156 s
  | RMS charge density error from multipole expansion :   0.661057E-02
  | Average real-space part of the electrostatic potential :      0.00154046 eV

  Integrating Hamiltonian matrix: batch-based integration.
  Time summed over all CPUs for integration: real work        6.729 s, elapsed        7.293 s

  Updating Kohn-Sham eigenvalues and eigenvectors using ELSI and the (modified) LAPACK eigensolver.
  Starting LAPACK eigensolver
  Finished Cholesky decomposition
  | Time :     0.001 s
  Finished transformation to standard eigenproblem
  | Time :     0.000 s
  Finished solving standard eigenproblem
  | Time :     0.001 s
  Finished back-transformation of eigenvectors
  | Time :     0.000 s

  Obtaining occupation numbers and chemical potential using ELSI.
  | Chemical potential (Fermi level):    -4.03705070 eV
  What follows are estimated values for band gap, HOMO, LUMO, etc.
  | They are estimated on a discrete k-point grid and not necessarily exact.
  | For converged numbers, create a DOS and/or band structure plot on a denser k-grid.

  Highest occupied state (VBM) at     -4.03705112 eV (relative to internal zero)
  | Occupation number:      1.00004792
  | K-point:     188 at    0.666667    0.666667    0.000000 (in units of recip. lattice)

  Lowest unoccupied state (CBM) at    -4.03705027 eV (relative to internal zero)
  | Occupation number:      0.99995208
  | K-point:     188 at    0.666667    0.666667    0.000000 (in units of recip. lattice)

  ESTIMATED overall HOMO-LUMO gap:      0.00000085 eV between HOMO at k-point 188 and LUMO at k-point 188
  | This appears to be a direct band gap.
  However, this system has fractional occupation numbers. Since we use a finite k-point grid,
  this material is metallic within the approximate finite broadening function (occupation_type)
  applied to determine the occupation numbers.

  Total energy components:
  | Sum of eigenvalues            :         -43.49144823 Ha       -1183.46252015 eV
  | XC energy correction          :         -10.84190583 Ha        -295.02326829 eV
  | XC potential correction       :          13.92860370 Ha         379.01659085 eV
  | Free-atom electrostatic energy:         -33.32005150 Ha        -906.68473292 eV
  | Hartree energy correction     :          -2.50064883 Ha         -68.04611674 eV
  | Entropy correction            :          -0.00000094 Ha          -0.00002559 eV
  | ---------------------------
  | Total energy                  :         -76.22545068 Ha       -2074.20004724 eV
  | Total energy, T -> 0          :         -76.22545162 Ha       -2074.20007283 eV  <-- do not rely on this value for anything but (periodic) metals
  | Electronic free energy        :         -76.22545256 Ha       -2074.20009841 eV

  Derived energy quantities:
  | Kinetic energy                :          76.30146508 Ha        2076.26850413 eV
  | Electrostatic energy          :        -141.68500993 Ha       -3855.44528308 eV
  | Energy correction for multipole
  | error in Hartree potential    :          -0.00930585 Ha          -0.25322498 eV
  | Sum of eigenvalues per atom                           :        -591.73126007 eV
  | Total energy (T->0) per atom                          :       -1037.10003641 eV  <-- do not rely on this value for anything but (periodic) metals
  | Electronic free energy per atom                       :       -1037.10004921 eV

  Self-consistency convergence accuracy:
  | Change of charge density      :  0.2213E+00
  | Change of sum of eigenvalues  :  0.6426E+02 eV
  | Change of total energy        :  0.1085E+01 eV

  End self-consistency iteration #     2       :  max(cpu_time)    wall_clock(cpu1)
  | Time for this iteration                    :        1.108 s           1.109 s
  | Charge density update                      :        0.603 s           0.603 s
  | Density mixing & preconditioning           :        0.029 s           0.029 s
  | Hartree multipole update                   :        0.002 s           0.002 s
  | Hartree multipole summation                :        0.143 s           0.143 s
  | Integration                                :        0.309 s           0.309 s
  | Solution of K.-S. eqns.                    :        0.023 s           0.023 s
  | Total energy evaluation                    :        0.000 s           0.000 s

  Partial memory accounting:
  | Current value for overall tracked memory usage:
  |   Minimum:        1.547 MB (on task  0)
  |   Maximum:        1.561 MB (on task  1)
  |   Average:        1.550 MB
  | Peak value for overall tracked memory usage:
  |   Minimum:       18.975 MB (on task 22 after allocating gradient_basis_wave)
  |   Maximum:       19.864 MB (on task  9 after allocating gradient_basis_wave)
  |   Average:       19.393 MB
  | Largest tracked array allocation so far:
  |   Minimum:        8.784 MB (hamiltonian_shell on task 22)
  |   Maximum:        9.383 MB (hamiltonian_shell on task  9)
  |   Average:        9.063 MB
  Note:  These values currently only include a subset of arrays which are explicitly tracked.
  The "true" memory usage will be greater.
------------------------------------------------------------

------------------------------------------------------------
          Begin self-consistency iteration #    3

  Date     :  20200319, Time     :  194119.583
------------------------------------------------------------
  Evaluating new KS density using the density matrix
  Evaluating density matrix
  Time summed over all CPUs for getting density from density matrix: real work       13.238 s, elapsed       14.363 s
  Integration grid: deviation in total charge (<rho> - N_e) =   2.131628E-13
  Pulay mixing of updated and previous charge densities.
  Renormalizing the density to the exact electron count on the 3D integration grid.
  | Formal number of electrons (from input files) :      12.0000000000
  | Integrated number of electrons on 3D grid     :      12.0001047362
  | Charge integration error                      :       0.0001047362
  | Normalization factor for density and gradient :       0.9999912721

  Evaluating partitioned Hartree potential by multipole expansion.
  | Original multipole sum: apparent total charge =   0.765656E-15
  | Sum of charges compensated after spline to logarithmic grids =   0.752170E-06
  | Analytical far-field extrapolation by fixed multipoles:
  | Hartree multipole sum: apparent total charge =   0.000000E+00
  Summing up the Hartree potential.
  Time summed over all CPUs for potential: real work        2.952 s, elapsed        3.148 s
  | RMS charge density error from multipole expansion :   0.673189E-02
  | Average real-space part of the electrostatic potential :      0.00208560 eV

  Integrating Hamiltonian matrix: batch-based integration.
  Time summed over all CPUs for integration: real work        6.737 s, elapsed        7.284 s

  Updating Kohn-Sham eigenvalues and eigenvectors using ELSI and the (modified) LAPACK eigensolver.
  Starting LAPACK eigensolver
  Finished Cholesky decomposition
  | Time :     0.001 s
  Finished transformation to standard eigenproblem
  | Time :     0.000 s
  Finished solving standard eigenproblem
  | Time :     0.001 s
  Finished back-transformation of eigenvectors
  | Time :     0.000 s

  Obtaining occupation numbers and chemical potential using ELSI.
  | Chemical potential (Fermi level):    -4.23944369 eV
  What follows are estimated values for band gap, HOMO, LUMO, etc.
  | They are estimated on a discrete k-point grid and not necessarily exact.
  | For converged numbers, create a DOS and/or band structure plot on a denser k-grid.

  Highest occupied state (VBM) at     -4.23944519 eV (relative to internal zero)
  | Occupation number:      1.00016944
  | K-point:     188 at    0.666667    0.666667    0.000000 (in units of recip. lattice)

  Lowest unoccupied state (CBM) at    -4.23944219 eV (relative to internal zero)
  | Occupation number:      0.99983056
  | K-point:     188 at    0.666667    0.666667    0.000000 (in units of recip. lattice)

  ESTIMATED overall HOMO-LUMO gap:      0.00000300 eV between HOMO at k-point 188 and LUMO at k-point 188
  | This appears to be a direct band gap.
  However, this system has fractional occupation numbers. Since we use a finite k-point grid,
  this material is metallic within the approximate finite broadening function (occupation_type)
  applied to determine the occupation numbers.

  Checking to see if s.c.f. parameters should be adjusted.
  Adjusted the Pulay mixing parameter (charge_mix_param) for an expected low-gap system. New value:   0.020000 .
  Adjusted the occupation broadening width for an expected low-gap system. New value:      0.05000000 eV.

  Total energy components:
  | Sum of eigenvalues            :         -43.62597450 Ha       -1187.12316638 eV
  | XC energy correction          :         -10.83074028 Ha        -294.71943824 eV
  | XC potential correction       :          13.91451075 Ha         378.63310218 eV
  | Free-atom electrostatic energy:         -33.32005150 Ha        -906.68473292 eV
  | Hartree energy correction     :          -2.36306543 Ha         -64.30228206 eV
  | Entropy correction            :          -0.00000470 Ha          -0.00012793 eV
  | ---------------------------
  | Total energy                  :         -76.22532097 Ha       -2074.19651742 eV
  | Total energy, T -> 0          :         -76.22532567 Ha       -2074.19664535 eV  <-- do not rely on this value for anything but (periodic) metals
  | Electronic free energy        :         -76.22533037 Ha       -2074.19677329 eV

  Derived energy quantities:
  | Kinetic energy                :          76.21652784 Ha        2073.95724418 eV
  | Electrostatic energy          :        -141.61110852 Ha       -3853.43432336 eV
  | Energy correction for multipole
  | error in Hartree potential    :          -0.00947413 Ha          -0.25780411 eV
  | Sum of eigenvalues per atom                           :        -593.56158319 eV
  | Total energy (T->0) per atom                          :       -1037.09832268 eV  <-- do not rely on this value for anything but (periodic) metals
  | Electronic free energy per atom                       :       -1037.09838664 eV

  Self-consistency convergence accuracy:
  | Change of charge density      :  0.2988E-01
  | Change of sum of eigenvalues  : -0.3661E+01 eV
  | Change of total energy        :  0.3530E-02 eV

  End self-consistency iteration #     3       :  max(cpu_time)    wall_clock(cpu1)
  | Time for this iteration                    :        1.108 s           1.109 s
  | Charge density update                      :        0.603 s           0.603 s
  | Density mixing & preconditioning           :        0.029 s           0.029 s
  | Hartree multipole update                   :        0.002 s           0.002 s
  | Hartree multipole summation                :        0.143 s           0.143 s
  | Integration                                :        0.309 s           0.309 s
  | Solution of K.-S. eqns.                    :        0.023 s           0.022 s
  | Total energy evaluation                    :        0.000 s           0.000 s

  Partial memory accounting:
  | Current value for overall tracked memory usage:
  |   Minimum:        1.547 MB (on task  0)
  |   Maximum:        1.561 MB (on task  1)
  |   Average:        1.550 MB
  | Peak value for overall tracked memory usage:
  |   Minimum:       18.976 MB (on task 22 after allocating gradient_basis_wave)
  |   Maximum:       19.865 MB (on task  9 after allocating gradient_basis_wave)
  |   Average:       19.394 MB
  | Largest tracked array allocation so far:
  |   Minimum:        8.784 MB (hamiltonian_shell on task 22)
  |   Maximum:        9.383 MB (hamiltonian_shell on task  9)
  |   Average:        9.063 MB
  Note:  These values currently only include a subset of arrays which are explicitly tracked.
  The "true" memory usage will be greater.
------------------------------------------------------------

------------------------------------------------------------
          Begin self-consistency iteration #    4

  Date     :  20200319, Time     :  194120.692
------------------------------------------------------------
  Evaluating new KS density using the density matrix
  Evaluating density matrix
  Time summed over all CPUs for getting density from density matrix: real work       13.255 s, elapsed       14.374 s
  Integration grid: deviation in total charge (<rho> - N_e) =   2.273737E-13
  Pulay mixing of updated and previous charge densities.
  Renormalizing the density to the exact electron count on the 3D integration grid.
  | Formal number of electrons (from input files) :      12.0000000000
  | Integrated number of electrons on 3D grid     :      11.9997283838
  | Charge integration error                      :      -0.0002716162
  | Normalization factor for density and gradient :       1.0000226352

  Evaluating partitioned Hartree potential by multipole expansion.
  | Original multipole sum: apparent total charge =   0.154419E-14
  | Sum of charges compensated after spline to logarithmic grids =   0.845867E-06
  | Analytical far-field extrapolation by fixed multipoles:
  | Hartree multipole sum: apparent total charge =   0.000000E+00
  Summing up the Hartree potential.
  Time summed over all CPUs for potential: real work        2.970 s, elapsed        3.175 s
  | RMS charge density error from multipole expansion :   0.794282E-02
  | Average real-space part of the electrostatic potential :      0.00397844 eV

  Integrating Hamiltonian matrix: batch-based integration.
  Time summed over all CPUs for integration: real work        6.731 s, elapsed        7.289 s

  Updating Kohn-Sham eigenvalues and eigenvectors using ELSI and the (modified) LAPACK eigensolver.
  Starting LAPACK eigensolver
  Finished Cholesky decomposition
  | Time :     0.000 s
  Finished transformation to standard eigenproblem
  | Time :     0.000 s
  Finished solving standard eigenproblem
  | Time :     0.001 s
  Finished back-transformation of eigenvectors
  | Time :     0.000 s

  Obtaining occupation numbers and chemical potential using ELSI.
  | Chemical potential (Fermi level):    -4.37424014 eV
  What follows are estimated values for band gap, HOMO, LUMO, etc.
  | They are estimated on a discrete k-point grid and not necessarily exact.
  | For converged numbers, create a DOS and/or band structure plot on a denser k-grid.

  Highest occupied state (VBM) at     -4.37424584 eV (relative to internal zero)
  | Occupation number:      1.00012865
  | K-point:     188 at    0.666667    0.666667    0.000000 (in units of recip. lattice)

  Lowest unoccupied state (CBM) at    -4.37423444 eV (relative to internal zero)
  | Occupation number:      0.99987135
  | K-point:     188 at    0.666667    0.666667    0.000000 (in units of recip. lattice)

  ESTIMATED overall HOMO-LUMO gap:      0.00001140 eV between HOMO at k-point 188 and LUMO at k-point 188
  | This appears to be a direct band gap.
  However, this system has fractional occupation numbers. Since we use a finite k-point grid,
  this material is metallic within the approximate finite broadening function (occupation_type)
  applied to determine the occupation numbers.

  Total energy components:
  | Sum of eigenvalues            :         -43.74677530 Ha       -1190.41032346 eV
  | XC energy correction          :         -10.81556095 Ha        -294.30638767 eV
  | XC potential correction       :          13.89570934 Ha         378.12148965 eV
  | Free-atom electrostatic energy:         -33.32005150 Ha        -906.68473292 eV
  | Hartree energy correction     :          -2.23872599 Ha         -60.91883365 eV
  | Entropy correction            :          -0.00000470 Ha          -0.00012793 eV
  | ---------------------------
  | Total energy                  :         -76.22540441 Ha       -2074.19878804 eV
  | Total energy, T -> 0          :         -76.22540911 Ha       -2074.19891597 eV  <-- do not rely on this value for anything but (periodic) metals
  | Electronic free energy        :         -76.22541381 Ha       -2074.19904390 eV

  Derived energy quantities:
  | Kinetic energy                :          75.97987825 Ha        2067.51768140 eV
  | Electrostatic energy          :        -141.38972171 Ha       -3847.41008177 eV
  | Energy correction for multipole
  | error in Hartree potential    :          -0.01116482 Ha          -0.30381020 eV
  | Sum of eigenvalues per atom                           :        -595.20516173 eV
  | Total energy (T->0) per atom                          :       -1037.09945798 eV  <-- do not rely on this value for anything but (periodic) metals
  | Electronic free energy per atom                       :       -1037.09952195 eV

  Self-consistency convergence accuracy:
  | Change of charge density      :  0.2347E-01
  | Change of sum of eigenvalues  : -0.3287E+01 eV
  | Change of total energy        : -0.2271E-02 eV

  End self-consistency iteration #     4       :  max(cpu_time)    wall_clock(cpu1)
  | Time for this iteration                    :        1.107 s           1.108 s
  | Charge density update                      :        0.603 s           0.603 s
  | Density mixing & preconditioning           :        0.027 s           0.027 s
  | Hartree multipole update                   :        0.002 s           0.001 s
  | Hartree multipole summation                :        0.144 s           0.144 s
  | Integration                                :        0.309 s           0.309 s
  | Solution of K.-S. eqns.                    :        0.023 s           0.023 s
  | Total energy evaluation                    :        0.000 s           0.000 s

  Partial memory accounting:
  | Current value for overall tracked memory usage:
  |   Minimum:        1.547 MB (on task  0)
  |   Maximum:        1.561 MB (on task  1)
  |   Average:        1.550 MB
  | Peak value for overall tracked memory usage:
  |   Minimum:       18.976 MB (on task 22 after allocating gradient_basis_wave)
  |   Maximum:       19.865 MB (on task  9 after allocating gradient_basis_wave)
  |   Average:       19.394 MB
  | Largest tracked array allocation so far:
  |   Minimum:        8.784 MB (hamiltonian_shell on task 22)
  |   Maximum:        9.383 MB (hamiltonian_shell on task  9)
  |   Average:        9.063 MB
  Note:  These values currently only include a subset of arrays which are explicitly tracked.
  The "true" memory usage will be greater.
------------------------------------------------------------

------------------------------------------------------------
          Begin self-consistency iteration #    5

  Date     :  20200319, Time     :  194121.801
------------------------------------------------------------
  Evaluating new KS density using the density matrix
  Evaluating density matrix
  Time summed over all CPUs for getting density from density matrix: real work       13.240 s, elapsed       14.355 s
  Integration grid: deviation in total charge (<rho> - N_e) =   2.557954E-13
  Pulay mixing of updated and previous charge densities.
  Renormalizing the density to the exact electron count on the 3D integration grid.
  | Formal number of electrons (from input files) :      12.0000000000
  | Integrated number of electrons on 3D grid     :      12.0001657881
  | Charge integration error                      :       0.0001657881
  | Normalization factor for density and gradient :       0.9999861845

  Evaluating partitioned Hartree potential by multipole expansion.
  | Original multipole sum: apparent total charge =   0.123977E-14
  | Sum of charges compensated after spline to logarithmic grids =   0.840769E-06
  | Analytical far-field extrapolation by fixed multipoles:
  | Hartree multipole sum: apparent total charge =   0.000000E+00
  Summing up the Hartree potential.
  Time summed over all CPUs for potential: real work        2.968 s, elapsed        3.165 s
  | RMS charge density error from multipole expansion :   0.790404E-02
  | Average real-space part of the electrostatic potential :      0.00413739 eV

  Integrating Hamiltonian matrix: batch-based integration.
  Time summed over all CPUs for integration: real work        6.731 s, elapsed        7.291 s

  Updating Kohn-Sham eigenvalues and eigenvectors using ELSI and the (modified) LAPACK eigensolver.
  Starting LAPACK eigensolver
  Finished Cholesky decomposition
  | Time :     0.000 s
  Finished transformation to standard eigenproblem
  | Time :     0.001 s
  Finished solving standard eigenproblem
  | Time :     0.001 s
  Finished back-transformation of eigenvectors
  | Time :     0.000 s

  Obtaining occupation numbers and chemical potential using ELSI.
  | Chemical potential (Fermi level):    -4.41424397 eV
  What follows are estimated values for band gap, HOMO, LUMO, etc.
  | They are estimated on a discrete k-point grid and not necessarily exact.
  | For converged numbers, create a DOS and/or band structure plot on a denser k-grid.

  Highest occupied state (VBM) at     -4.41424942 eV (relative to internal zero)
  | Occupation number:      1.00012308
  | K-point:     188 at    0.666667    0.666667    0.000000 (in units of recip. lattice)

  Lowest unoccupied state (CBM) at    -4.41423851 eV (relative to internal zero)
  | Occupation number:      0.99987692
  | K-point:     188 at    0.666667    0.666667    0.000000 (in units of recip. lattice)

  ESTIMATED overall HOMO-LUMO gap:      0.00001091 eV between HOMO at k-point 188 and LUMO at k-point 188
  | This appears to be a direct band gap.
  However, this system has fractional occupation numbers. Since we use a finite k-point grid,
  this material is metallic within the approximate finite broadening function (occupation_type)
  applied to determine the occupation numbers.

  Total energy components:
  | Sum of eigenvalues            :         -43.76853288 Ha       -1191.00237713 eV
  | XC energy correction          :         -10.81429857 Ha        -294.27203660 eV
  | XC potential correction       :          13.89408796 Ha         378.07736987 eV
  | Free-atom electrostatic energy:         -33.32005150 Ha        -906.68473292 eV
  | Hartree energy correction     :          -2.21662014 Ha         -60.31730289 eV
  | Entropy correction            :          -0.00000470 Ha          -0.00012793 eV
  | ---------------------------
  | Total energy                  :         -76.22541513 Ha       -2074.19907966 eV
  | Total energy, T -> 0          :         -76.22541983 Ha       -2074.19920759 eV  <-- do not rely on this value for anything but (periodic) metals
  | Electronic free energy        :         -76.22542453 Ha       -2074.19933553 eV

  Derived energy quantities:
  | Kinetic energy                :          75.97600721 Ha        2067.41234496 eV
  | Electrostatic energy          :        -141.38712376 Ha       -3847.33938802 eV
  | Energy correction for multipole
  | error in Hartree potential    :          -0.01109226 Ha          -0.30183571 eV
  | Sum of eigenvalues per atom                           :        -595.50118856 eV
  | Total energy (T->0) per atom                          :       -1037.09960380 eV  <-- do not rely on this value for anything but (periodic) metals
  | Electronic free energy per atom                       :       -1037.09966776 eV

  Self-consistency convergence accuracy:
  | Change of charge density      :  0.2885E-02
  | Change of sum of eigenvalues  : -0.5921E+00 eV
  | Change of total energy        : -0.2916E-03 eV

  End self-consistency iteration #     5       :  max(cpu_time)    wall_clock(cpu1)
  | Time for this iteration                    :        1.107 s           1.107 s
  | Charge density update                      :        0.602 s           0.602 s
  | Density mixing & preconditioning           :        0.027 s           0.027 s
  | Hartree multipole update                   :        0.002 s           0.002 s
  | Hartree multipole summation                :        0.143 s           0.143 s
  | Integration                                :        0.309 s           0.309 s
  | Solution of K.-S. eqns.                    :        0.023 s           0.023 s
  | Total energy evaluation                    :        0.000 s           0.001 s

  Partial memory accounting:
  | Current value for overall tracked memory usage:
  |   Minimum:        1.547 MB (on task  0)
  |   Maximum:        1.561 MB (on task  1)
  |   Average:        1.550 MB
  | Peak value for overall tracked memory usage:
  |   Minimum:       18.976 MB (on task 22 after allocating gradient_basis_wave)
  |   Maximum:       19.865 MB (on task  9 after allocating gradient_basis_wave)
  |   Average:       19.394 MB
  | Largest tracked array allocation so far:
  |   Minimum:        8.784 MB (hamiltonian_shell on task 22)
  |   Maximum:        9.383 MB (hamiltonian_shell on task  9)
  |   Average:        9.063 MB
  Note:  These values currently only include a subset of arrays which are explicitly tracked.
  The "true" memory usage will be greater.
------------------------------------------------------------

------------------------------------------------------------
          Begin self-consistency iteration #    6

  Date     :  20200319, Time     :  194122.908
------------------------------------------------------------
  Evaluating new KS density using the density matrix
  Evaluating density matrix
  Time summed over all CPUs for getting density from density matrix: real work       13.258 s, elapsed       14.367 s
  Integration grid: deviation in total charge (<rho> - N_e) =   2.913225E-13
  Pulay mixing of updated and previous charge densities.
  Renormalizing the density to the exact electron count on the 3D integration grid.
  | Formal number of electrons (from input files) :      12.0000000000
  | Integrated number of electrons on 3D grid     :      11.9985561106
  | Charge integration error                      :      -0.0014438894
  | Normalization factor for density and gradient :       1.0001203386

  Evaluating partitioned Hartree potential by multipole expansion.
  | Original multipole sum: apparent total charge =  -0.162895E-14
  | Sum of charges compensated after spline to logarithmic grids =   0.881616E-06
  | Analytical far-field extrapolation by fixed multipoles:
  | Hartree multipole sum: apparent total charge =   0.000000E+00
  Summing up the Hartree potential.
  Time summed over all CPUs for potential: real work        2.977 s, elapsed        3.185 s
  | RMS charge density error from multipole expansion :   0.815614E-02
  | Average real-space part of the electrostatic potential :      0.00268072 eV

  Integrating Hamiltonian matrix: batch-based integration.
  Time summed over all CPUs for integration: real work        6.732 s, elapsed        7.286 s

  Updating Kohn-Sham eigenvalues and eigenvectors using ELSI and the (modified) LAPACK eigensolver.
  Starting LAPACK eigensolver
  Finished Cholesky decomposition
  | Time :     0.000 s
  Finished transformation to standard eigenproblem
  | Time :     0.001 s
  Finished solving standard eigenproblem
  | Time :     0.001 s
  Finished back-transformation of eigenvectors
  | Time :     0.000 s

  Obtaining occupation numbers and chemical potential using ELSI.
  | Chemical potential (Fermi level):    -4.14355737 eV
  What follows are estimated values for band gap, HOMO, LUMO, etc.
  | They are estimated on a discrete k-point grid and not necessarily exact.
  | For converged numbers, create a DOS and/or band structure plot on a denser k-grid.

  Highest occupied state (VBM) at     -4.14356505 eV (relative to internal zero)
  | Occupation number:      1.00017326
  | K-point:     188 at    0.666667    0.666667    0.000000 (in units of recip. lattice)

  Lowest unoccupied state (CBM) at    -4.14354970 eV (relative to internal zero)
  | Occupation number:      0.99982674
  | K-point:     188 at    0.666667    0.666667    0.000000 (in units of recip. lattice)

  ESTIMATED overall HOMO-LUMO gap:      0.00001535 eV between HOMO at k-point 188 and LUMO at k-point 188
  | This appears to be a direct band gap.
  However, this system has fractional occupation numbers. Since we use a finite k-point grid,
  this material is metallic within the approximate finite broadening function (occupation_type)
  applied to determine the occupation numbers.

  Total energy components:
  | Sum of eigenvalues            :         -43.62908030 Ha       -1187.20767929 eV
  | XC energy correction          :         -10.82172108 Ha        -294.47401330 eV
  | XC potential correction       :          13.90364594 Ha         378.33745563 eV
  | Free-atom electrostatic energy:         -33.32005150 Ha        -906.68473292 eV
  | Hartree energy correction     :          -2.35821990 Ha         -64.17042835 eV
  | Entropy correction            :          -0.00000470 Ha          -0.00012793 eV
  | ---------------------------
[...]
  | K-point:     188 at    0.666667    0.666667    0.000000 (in units of recip. lattice)

  ESTIMATED overall HOMO-LUMO gap:      0.00001328 eV between HOMO at k-point 188 and LUMO at k-point 188
  | This appears to be a direct band gap.
  However, this system has fractional occupation numbers. Since we use a finite k-point grid,
  this material is metallic within the approximate finite broadening function (occupation_type)
  applied to determine the occupation numbers.

  Total energy components:
  | Sum of eigenvalues            :         -43.70649855 Ha       -1189.31433709 eV
  | XC energy correction          :         -10.81823865 Ha        -294.37925160 eV
  | XC potential correction       :          13.89905272 Ha         378.21246783 eV
  | Free-atom electrostatic energy:         -33.32005150 Ha        -906.68473292 eV
  | Hartree energy correction     :          -2.27966468 Ha         -62.03283222 eV
  | Entropy correction            :          -0.00000470 Ha          -0.00012793 eV
  | ---------------------------
  | Total energy                  :         -76.22540066 Ha       -2074.19868600 eV
  | Total energy, T -> 0          :         -76.22540536 Ha       -2074.19881393 eV  <-- do not rely on this value for anything but (periodic) metals
  | Electronic free energy        :         -76.22541006 Ha       -2074.19894187 eV

  Derived energy quantities:
  | Kinetic energy                :          75.98980854 Ha        2067.78789833 eV
  | Electrostatic energy          :        -141.39697055 Ha       -3847.60733273 eV
  | Energy correction for multipole
  | error in Hartree potential    :          -0.01146734 Ha          -0.31204225 eV
  | Sum of eigenvalues per atom                           :        -594.65716854 eV
  | Total energy (T->0) per atom                          :       -1037.09940697 eV  <-- do not rely on this value for anything but (periodic) metals
  | Electronic free energy per atom                       :       -1037.09947093 eV

  Self-consistency convergence accuracy:
  | Change of charge density      :  0.1912E-05
  | Change of sum of eigenvalues  : -0.1513E-02 eV
  | Change of total energy        :  0.1080E-06 eV

  End self-consistency iteration #    13       :  max(cpu_time)    wall_clock(cpu1)
  | Time for this iteration                    :        1.108 s           1.107 s
  | Charge density update                      :        0.603 s           0.603 s
  | Density mixing & preconditioning           :        0.027 s           0.027 s
  | Hartree multipole update                   :        0.002 s           0.001 s
  | Hartree multipole summation                :        0.144 s           0.144 s
  | Integration                                :        0.309 s           0.309 s
  | Solution of K.-S. eqns.                    :        0.023 s           0.023 s
  | Total energy evaluation                    :        0.000 s           0.000 s

  Partial memory accounting:
  | Current value for overall tracked memory usage:
  |   Minimum:        1.547 MB (on task  0)
  |   Maximum:        1.561 MB (on task  1)
  |   Average:        1.550 MB
  | Peak value for overall tracked memory usage:
  |   Minimum:       18.976 MB (on task 22 after allocating gradient_basis_wave)
  |   Maximum:       19.865 MB (on task  9 after allocating gradient_basis_wave)
  |   Average:       19.394 MB
  | Largest tracked array allocation so far:
  |   Minimum:        8.784 MB (hamiltonian_shell on task 22)
  |   Maximum:        9.383 MB (hamiltonian_shell on task  9)
  |   Average:        9.063 MB
  Note:  These values currently only include a subset of arrays which are explicitly tracked.
  The "true" memory usage will be greater.
------------------------------------------------------------

------------------------------------------------------------
          Begin self-consistency iteration #   14

  Date     :  20200319, Time     :  194131.786
------------------------------------------------------------
  Evaluating new KS density using the density matrix
  Evaluating density matrix
  Time summed over all CPUs for getting density from density matrix: real work       13.248 s, elapsed       14.370 s
  Integration grid: deviation in total charge (<rho> - N_e) =   1.740830E-13
  Pulay mixing of updated and previous charge densities.
  Renormalizing the density to the exact electron count on the 3D integration grid.
  | Formal number of electrons (from input files) :      12.0000000000
  | Integrated number of electrons on 3D grid     :      12.0000000189
  | Charge integration error                      :       0.0000000189
  | Normalization factor for density and gradient :       0.9999999984

  Evaluating partitioned Hartree potential by multipole expansion.
  | Original multipole sum: apparent total charge =   0.274251E-14
  | Sum of charges compensated after spline to logarithmic grids =   0.856321E-06
  | Analytical far-field extrapolation by fixed multipoles:
  | Hartree multipole sum: apparent total charge =   0.000000E+00
  Summing up the Hartree potential.
  Time summed over all CPUs for potential: real work        2.975 s, elapsed        3.182 s
  | RMS charge density error from multipole expansion :   0.811269E-02
  | Average real-space part of the electrostatic potential :      0.00369192 eV

  Integrating Hamiltonian matrix: batch-based integration.
  Time summed over all CPUs for integration: real work        6.732 s, elapsed        7.287 s

  Updating Kohn-Sham eigenvalues and eigenvectors using ELSI and the (modified) LAPACK eigensolver.
  Starting LAPACK eigensolver
  Finished Cholesky decomposition
  | Time :     0.000 s
  Finished transformation to standard eigenproblem
  | Time :     0.001 s
  Finished solving standard eigenproblem
  | Time :     0.001 s
  Finished back-transformation of eigenvectors
  | Time :     0.000 s

  Obtaining occupation numbers and chemical potential using ELSI.
  | Chemical potential (Fermi level):    -4.29739168 eV
  What follows are estimated values for band gap, HOMO, LUMO, etc.
  | They are estimated on a discrete k-point grid and not necessarily exact.
  | For converged numbers, create a DOS and/or band structure plot on a denser k-grid.

  Highest occupied state (VBM) at     -4.29739830 eV (relative to internal zero)
  | Occupation number:      1.00014949
  | K-point:     188 at    0.666667    0.666667    0.000000 (in units of recip. lattice)

  Lowest unoccupied state (CBM) at    -4.29738505 eV (relative to internal zero)
  | Occupation number:      0.99985051
  | K-point:     188 at    0.666667    0.666667    0.000000 (in units of recip. lattice)

  ESTIMATED overall HOMO-LUMO gap:      0.00001325 eV between HOMO at k-point 188 and LUMO at k-point 188
  | This appears to be a direct band gap.
  However, this system has fractional occupation numbers. Since we use a finite k-point grid,
  this material is metallic within the approximate finite broadening function (occupation_type)
  applied to determine the occupation numbers.

  Total energy components:
  | Sum of eigenvalues            :         -43.70649926 Ha       -1189.31435640 eV
  | XC energy correction          :         -10.81823867 Ha        -294.37925205 eV
  | XC potential correction       :          13.89905267 Ha         378.21246626 eV
  | Free-atom electrostatic energy:         -33.32005150 Ha        -906.68473292 eV
  | Hartree energy correction     :          -2.27966390 Ha         -62.03281087 eV
  | Entropy correction            :          -0.00000470 Ha          -0.00012793 eV
  | ---------------------------
  | Total energy                  :         -76.22540066 Ha       -2074.19868598 eV
  | Total energy, T -> 0          :         -76.22540536 Ha       -2074.19881392 eV  <-- do not rely on this value for anything but (periodic) metals
  | Electronic free energy        :         -76.22541006 Ha       -2074.19894185 eV

  Derived energy quantities:
  | Kinetic energy                :          75.98980820 Ha        2067.78788905 eV
  | Electrostatic energy          :        -141.39697019 Ha       -3847.60732298 eV
  | Energy correction for multipole
  | error in Hartree potential    :          -0.01146732 Ha          -0.31204157 eV
  | Sum of eigenvalues per atom                           :        -594.65717820 eV
  | Total energy (T->0) per atom                          :       -1037.09940696 eV  <-- do not rely on this value for anything but (periodic) metals
  | Electronic free energy per atom                       :       -1037.09947093 eV

  Self-consistency convergence accuracy:
  | Change of charge density      :  0.4393E-06
  | Change of sum of eigenvalues  : -0.1932E-04 eV
  | Change of total energy        :  0.1760E-07 eV

  Preliminary charge convergence reached. Turning off preconditioner.

  Writing Kohn-Sham eigenvalues.
  K-point:       1 at    0.000000    0.000000    0.000000 (in units of recip. lattice)

  State    Occupation    Eigenvalue [Ha]    Eigenvalue [eV]
      1       2.00000          -9.936367         -270.38229
      2       2.00000          -9.935404         -270.35610
      3       2.00000          -0.877652          -23.88212
      4       2.00000          -0.439726          -11.96556
      5       2.00000          -0.270446           -7.35921
      6       2.00000          -0.270445           -7.35919
      7       0.00000           0.067445            1.83526
      8       0.00000           0.073362            1.99627
      9       0.00000           0.149231            4.06078
     10       0.00000           0.149234            4.06085
     11       0.00000           0.265554            7.22609
     12       0.00000           0.308109            8.38407

  What follows are estimated values for band gap, HOMO, LUMO, etc.
  | They are estimated on a discrete k-point grid and not necessarily exact.
  | For converged numbers, create a DOS and/or band structure plot on a denser k-grid.

  Highest occupied state (VBM) at     -4.29739830 eV (relative to internal zero)
  | Occupation number:      1.00014949
  | K-point:     188 at    0.666667    0.666667    0.000000 (in units of recip. lattice)

  Lowest unoccupied state (CBM) at    -4.29738505 eV (relative to internal zero)
  | Occupation number:      0.99985051
  | K-point:     188 at    0.666667    0.666667    0.000000 (in units of recip. lattice)

  ESTIMATED overall HOMO-LUMO gap:      0.00001325 eV between HOMO at k-point 188 and LUMO at k-point 188
  | This appears to be a direct band gap.
  However, this system has fractional occupation numbers. Since we use a finite k-point grid,
  this material is metallic within the approximate finite broadening function (occupation_type)
  applied to determine the occupation numbers.

  Self-consistency cycle converged.

  End self-consistency iteration #    14       :  max(cpu_time)    wall_clock(cpu1)
  | Time for this iteration                    :        1.107 s           1.108 s
  | Charge density update                      :        0.603 s           0.603 s
  | Density mixing                             :        0.027 s           0.027 s
  | Hartree multipole update                   :        0.002 s           0.001 s
  | Hartree multipole summation                :        0.144 s           0.145 s
  | Integration                                :        0.309 s           0.308 s
  | Solution of K.-S. eqns.                    :        0.022 s           0.023 s
  | Total energy evaluation                    :        0.000 s           0.000 s

  Partial memory accounting:
  | Current value for overall tracked memory usage:
  |   Minimum:        1.547 MB (on task  0)
  |   Maximum:        1.561 MB (on task  1)
  |   Average:        1.550 MB
  | Peak value for overall tracked memory usage:
  |   Minimum:       18.976 MB (on task 22 after allocating gradient_basis_wave)
  |   Maximum:       19.865 MB (on task  9 after allocating gradient_basis_wave)
  |   Average:       19.394 MB
  | Largest tracked array allocation so far:
  |   Minimum:        8.784 MB (hamiltonian_shell on task 22)
  |   Maximum:        9.383 MB (hamiltonian_shell on task  9)
  |   Average:        9.063 MB
  Note:  These values currently only include a subset of arrays which are explicitly tracked.
  The "true" memory usage will be greater.
------------------------------------------------------------

  Energy and forces in a compact form:
  | Total energy uncorrected      :         -0.207419868598264E+04 eV
  | Total energy corrected        :         -0.207419881391679E+04 eV  <-- do not rely on this value for anything but (periodic) metals
  | Electronic free energy        :         -0.207419894185093E+04 eV

  ------------------------------------ 
  Start decomposition of the XC Energy 
  ------------------------------------ 
  X and C from original XC functional choice 
  Hartree-Fock Energy :          0.000000000 Ha              0.000000000 eV
  X Energy            :        -10.398430247 Ha           -282.955683651 eV
  C Energy            :         -0.419808422 Ha            -11.423568400 eV
  Total XC Energy     :        -10.818238670 Ha           -294.379252051 eV
  ------------------------------------ 
  LDA X and C from self-consistent density 
  X Energy LDA        :         -9.433960477 Ha           -256.711125885 eV
  C Energy LDA        :         -0.796099037 Ha            -21.662956984 eV
  ------------------------------------ 
  End decomposition of the XC Energy 
  ------------------------------------ 

------------------------------------------------------------

------------------------------------------------------------------------------
  Final output of selected total energy values:

  The following output summarizes some interesting total energy values
  at the end of a run (AFTER all relaxation, molecular dynamics, etc.).

  | Total energy of the DFT / Hartree-Fock s.c.f. calculation      :          -2074.198685983 eV
  | Final zero-broadening corrected energy (caution - metals only) :          -2074.198813917 eV
  | For reference only, the value of 1 Hartree used in FHI-aims is :             27.211384500 eV
  | For reference only, the overall average (free atom contribution
  | + realspace contribution) of the electrostatic potential after
  | s.c.f. convergence is                                          :             -0.467385570 eV

  Before relying on these values, please be sure to understand exactly which
  total energy value is referred to by a given number. Different objects may
  all carry the same name 'total energy'. Definitions:

  Total energy of the DFT / Hartree-Fock s.c.f. calculation:
  | Note that this energy does not include ANY quantities calculated after the
  | s.c.f. cycle, in particular not ANY RPA, MP2, etc. many-body perturbation terms.

  Final zero-broadening corrected energy:
  | For metallic systems only, a broadening of the occupation numbers at the Fermi
  | level can be extrapolated back to zero broadening by an electron-gas inspired
  | formula. For all systems that are not real metals, this value can be
  | meaningless and should be avoided.

------------------------------------------------------------------------------
  Methods described in the following list of references were used in this FHI-aims run.
  If you publish the results, please make sure to cite these reference if they apply.
  FHI-aims is an academic code, and for our developers (often, Ph.D. students
  and postdocs), scientific credit in the community is essential.
  Thank you for helping us!

  For any use of FHI-aims, please cite:

    Volker Blum, Ralf Gehrke, Felix Hanke, Paula Havu, Ville Havu,
    Xinguo Ren, Karsten Reuter, and Matthias Scheffler
    'Ab initio molecular simulations with numeric atom-centered orbitals'
    Computer Physics Communications 180, 2175-2196 (2009)
    http://dx.doi.org/10.1016/j.cpc.2009.06.022


  The provided symmetry information was generated with SPGlib:

    Atsushi Togo, Yusuke Seto, Dimitar Pashov
    SPGlib 1.7.3 obtained from http://spglib.sourceforge.net
    Copyright (C) 2008 Atsushi Togo


  The ELSI infrastructure was used in your run to solve the Kohn-Sham electronic structure.
  Please check out http://elsi-interchange.org to learn more.
  If scalability is important for your project, please acknowledge ELSI by citing:

    V. W-z. Yu, F. Corsetti, A. Garcia, W. P. Huhn, M. Jacquelin, W. Jia,
    B. Lange, L. Lin, J. Lu, W. Mi, A. Seifitokaldani, A. Vazquez-Mayagoitia,
    C. Yang, H. Yang, and V. Blum
    'ELSI: A unified software interface for Kohn-Sham electronic structure solvers'
    Computer Physics Communications 222, 267-285 (2018).
    http://dx.doi.org/10.1016/j.cpc.2017.09.007


  For the real-space grid partitioning and parallelization used in this calculation, please cite:

    Ville Havu, Volker Blum, Paula Havu, and Matthias Scheffler,
    'Efficient O(N) integration for all-electron electronic structure calculation'
    'using numerically tabulated basis functions'
    Journal of Computational Physics 228, 8367-8379 (2009).
    http://dx.doi.org/10.1016/j.jcp.2009.08.008

  Of course, there are many other important community references, e.g., those cited in the
  above references. Our list is limited to references that describe implementations in the
  FHI-aims code. The reason is purely practical (length of this list) - please credit others as well.

------------------------------------------------------------
          Leaving FHI-aims.
          Date     :  20200319, Time     :  194132.908

          Computational steps:
          | Number of self-consistency cycles          :           14
          | Number of SCF (re)initializations          :            1

          Detailed time accounting                     :  max(cpu_time)    wall_clock(cpu1)
          | Total time                                 :       17.534 s          17.761 s
          | Preparation time                           :        0.151 s           0.173 s
          | Boundary condition initalization           :        0.770 s           0.773 s
          | Grid partitioning                          :        0.132 s           0.133 s
          | Preloading free-atom quantities on grid    :        0.009 s           0.009 s
          | Free-atom superposition energy             :        0.008 s           0.008 s
          | Total time for integrations                :        4.915 s           4.918 s
          | Total time for solution of K.-S. equations :        0.362 s           0.386 s
          | Total time for density update              :        8.466 s           8.467 s
          | Total time for mixing & preconditioning    :        0.389 s           0.392 s
          | Total time for Hartree multipole update    :        0.023 s           0.020 s
          | Total time for Hartree multipole sum       :        1.995 s           1.998 s
          | Total time for total energy evaluation     :        0.002 s           0.004 s
          | Total time for scaled ZORA corrections     :        0.000 s           0.000 s

          Partial memory accounting:
          | Residual value for overall tracked memory usage across tasks:     0.000000 MB (should be 0.000000 MB)
          | Peak values for overall tracked memory usage:
          |   Minimum:       18.976 MB (on task 22 after allocating gradient_basis_wave)
          |   Maximum:       19.865 MB (on task  9 after allocating gradient_basis_wave)
          |   Average:       19.394 MB
          | Largest tracked array allocation:
          |   Minimum:        8.784 MB (hamiltonian_shell on task 22)
          |   Maximum:        9.383 MB (hamiltonian_shell on task  9)
          |   Average:        9.063 MB
          Note:  These values currently only include a subset of arrays which are explicitly tracked.
          The "true" memory usage will be greater.

          Have a nice day.
------------------------------------------------------------
