------------------------------------------------------------
          Invoking FHI-aims ...

          When using FHI-aims, please cite the following reference:

          Volker Blum, Ralf Gehrke, Felix Hanke, Paula Havu,
          Ville Havu, Xinguo Ren, Karsten Reuter, and Matthias Scheffler,
          'Ab Initio Molecular Simulations with Numeric Atom-Centered Orbitals',
          Computer Physics Communications 180, 2175-2196 (2009)

          For any questions about FHI-aims, please visit the aimsclub website
          with its forums and wiki. Contributions to both the forums and the
          wiki are warmly encouraged - they are for you, and everyone is welcome there.

------------------------------------------------------------



  Date     :  20200420, Time     :  204038.787
  Time zero on CPU 1             :   0.132779000000000E+00  s.
  Internal wall clock time zero  :           356647238.787  s.

  FHI-aims created a unique identifier for this run for later identification
  aims_uuid : 57DB3833-8849-48BD-A1D8-D5A9A1B29D04

  Build configuration of the current instance of FHI-aims
  -------------------------------------------------------
  FHI-aims version      : 200112
  Commit number         : 23daeca3f
  CMake host system     : Linux-3.10.0-693.21.1.el7.x86_64
  CMake version         : 3.13.3
  Fortran compiler      : /sw/installed/impi/2018.4.274-iccifort-2019.1.144-GCC-8.2.0-2.31.1/bin64/mpiifort (Intel) version 19.0.0.20181018
  Fortran compiler flags: -O3 -ip -fp-model precise
  C compiler            : /sw/installed/impi/2018.4.274-iccifort-2019.1.144-GCC-8.2.0-2.31.1/bin64/mpiicc (Intel) version 19.0.0.20181018
  C compiler flags      : -O3 -ip -fp-model precise
  Architecture          :
  Using MPI
  Using Scalapack
  Using C files
  Using LibXC
  Using SPGlib
  Using i-PI
  Using RLSY
  Linking against: /sw/installed/imkl/2019.1.144-iimpi-2019a/mkl/lib/intel64/libmkl_intel_lp64.so
                   /sw/installed/imkl/2019.1.144-iimpi-2019a/mkl/lib/intel64/libmkl_sequential.so
                   /sw/installed/imkl/2019.1.144-iimpi-2019a/mkl/lib/intel64/libmkl_core.so
                   /sw/installed/imkl/2019.1.144-iimpi-2019a/mkl/lib/intel64/libmkl_blacs_intelmpi_lp64.so
                   /sw/installed/imkl/2019.1.144-iimpi-2019a/mkl/lib/intel64/libmkl_scalapack_lp64.so

  Using       24 parallel tasks.
  Task        0 on host taurusi6529.taurus.hrsk.tu-dresden.de reporting.
  Task        1 on host taurusi6529.taurus.hrsk.tu-dresden.de reporting.
  Task        2 on host taurusi6529.taurus.hrsk.tu-dresden.de reporting.
  Task        3 on host taurusi6529.taurus.hrsk.tu-dresden.de reporting.
  Task        4 on host taurusi6529.taurus.hrsk.tu-dresden.de reporting.
  Task        5 on host taurusi6529.taurus.hrsk.tu-dresden.de reporting.
  Task        6 on host taurusi6529.taurus.hrsk.tu-dresden.de reporting.
  Task        7 on host taurusi6529.taurus.hrsk.tu-dresden.de reporting.
  Task        8 on host taurusi6529.taurus.hrsk.tu-dresden.de reporting.
  Task        9 on host taurusi6529.taurus.hrsk.tu-dresden.de reporting.
  Task       10 on host taurusi6529.taurus.hrsk.tu-dresden.de reporting.
  Task       11 on host taurusi6529.taurus.hrsk.tu-dresden.de reporting.
  Task       12 on host taurusi6529.taurus.hrsk.tu-dresden.de reporting.
  Task       13 on host taurusi6529.taurus.hrsk.tu-dresden.de reporting.
  Task       14 on host taurusi6529.taurus.hrsk.tu-dresden.de reporting.
  Task       15 on host taurusi6529.taurus.hrsk.tu-dresden.de reporting.
  Task       16 on host taurusi6529.taurus.hrsk.tu-dresden.de reporting.
  Task       17 on host taurusi6529.taurus.hrsk.tu-dresden.de reporting.
  Task       18 on host taurusi6529.taurus.hrsk.tu-dresden.de reporting.
  Task       19 on host taurusi6529.taurus.hrsk.tu-dresden.de reporting.
  Task       20 on host taurusi6529.taurus.hrsk.tu-dresden.de reporting.
  Task       21 on host taurusi6529.taurus.hrsk.tu-dresden.de reporting.
  Task       22 on host taurusi6529.taurus.hrsk.tu-dresden.de reporting.
  Task       23 on host taurusi6529.taurus.hrsk.tu-dresden.de reporting.

  Performing system and environment tests:
  | Environment variable OMP_NUM_THREADS correctly set to 1.
  | Maximum stacksize for task 0: unlimited
  | Maximum stacksize for task 1: unlimited
  | Maximum stacksize for task 2: unlimited
  | Maximum stacksize for task 3: unlimited
  | Maximum stacksize for task 4: unlimited
  | Maximum stacksize for task 5: unlimited
  | Maximum stacksize for task 6: unlimited
  | Maximum stacksize for task 7: unlimited
  | Maximum stacksize for task 8: unlimited
  | Maximum stacksize for task 9: unlimited
  | Maximum stacksize for task 10: unlimited
  | Maximum stacksize for task 11: unlimited
  | Maximum stacksize for task 12: unlimited
  | Maximum stacksize for task 13: unlimited
  | Maximum stacksize for task 14: unlimited
  | Maximum stacksize for task 15: unlimited
  | Maximum stacksize for task 16: unlimited
  | Maximum stacksize for task 17: unlimited
  | Maximum stacksize for task 18: unlimited
  | Maximum stacksize for task 19: unlimited
  | Maximum stacksize for task 20: unlimited
  | Maximum stacksize for task 21: unlimited
  | Maximum stacksize for task 22: unlimited
  | Maximum stacksize for task 23: unlimited
  | Current stacksize for task 0: unlimited
  | Current stacksize for task 1: unlimited
  | Current stacksize for task 2: unlimited
  | Current stacksize for task 3: unlimited
  | Current stacksize for task 4: unlimited
  | Current stacksize for task 5: unlimited
  | Current stacksize for task 6: unlimited
  | Current stacksize for task 7: unlimited
  | Current stacksize for task 8: unlimited
  | Current stacksize for task 9: unlimited
  | Current stacksize for task 10: unlimited
  | Current stacksize for task 11: unlimited
  | Current stacksize for task 12: unlimited
  | Current stacksize for task 13: unlimited
  | Current stacksize for task 14: unlimited
  | Current stacksize for task 15: unlimited
  | Current stacksize for task 16: unlimited
  | Current stacksize for task 17: unlimited
  | Current stacksize for task 18: unlimited
  | Current stacksize for task 19: unlimited
  | Current stacksize for task 20: unlimited
  | Current stacksize for task 21: unlimited
  | Current stacksize for task 22: unlimited
  | Current stacksize for task 23: unlimited
  | Checking for scalapack...
  | Testing pdtran()...
  | All pdtran() tests passed.

  Obtaining array dimensions for all initial allocations:
  
  -----------------------------------------------------------------------
  Parsing control.in (first pass over file, find array dimensions only).
  The contents of control.in will be repeated verbatim below
  unless switched off by setting 'verbatim_writeout .false.' .
  in the first line of control.in .
  -----------------------------------------------------------------------
  
  #===============================================================================
  # FHI-aims file: ./control.in
  # Created using the Atomic Simulation Environment (ASE)
  # Thu Apr  2 11:27:09 2020
  #===============================================================================
  xc                                 pbe
  # include_spin_orbit
  # vdw_correction_hirshfeld
  many_body_dispersion
  spin                               none
  k_grid 	 	 12 12 10
  relativistic                       atomic_zora scalar
  energy_tolerance 1e-2
  harmonic_length_scale  0.015
  ### SCF settings
  adjust_scf 	 always 	 3
  # frozen_core_scf 	 .true.
  # charge_mix_param  0.05
  # occupation_type 	 gaussian 	 0.01
  # sc_accuracy_eev   1E-3 	 	 # sum of eigenvalues convergence
  # sc_accuracy_etot  1E-6 	 	 # total energy convergence
  # sc_accuracy_rho   1E-3 	 	 # electron density convergence
  # elsi_restart 	 read_and_write 	 1000
  ### geometry optimisation section
  relax_geometry 	 bfgs 	 1E-2
  relax_unit_cell 	 full
  #===============================================================================
  
  ################################################################################
  #
  #  FHI-aims code project
  # Volker Blum, Fritz Haber Institute Berlin, 2009
  #
  #  Suggested "tight" defaults for Pd atom (to be pasted into control.in file)
  #
  ################################################################################
    species        Pd
  #     global species definitions
      nucleus             46
      mass                106.42
  #
      l_hartree           6
  #
      cut_pot             4.0  2.0  1.0
      basis_dep_cutoff    1e-4
  #
      radial_base         62 7.0
      radial_multiplier   2
      angular_grids specified
        division   0.3627   50
        division   0.7349  110
        division   1.0624  194
        division   1.2496  302
        division   1.6740  434
  #      division   2.0126  590
  #      division   2.0830  770
  #      division   2.7936 1202
  #       outer_grid  974
        outer_grid  434
  ################################################################################
  #
  #  Definition of "minimal" basis
  #
  ################################################################################
  #     valence basis states
      valence      5  s   1.
      valence      4  p   6.
      valence      4  d   9.
  #     ion occupancy
      ion_occ     5  s   0.
      ion_occ     4  p   6.
      ion_occ     4  d   8.
  ################################################################################
  #
  #  Suggested additional basis functions. For production calculations,
  #  uncomment them one after another (the most important basis functions are
  #  listed first).
  #
  #  Constructed for dimers: 2.0 A, 2.275 A, 2.75 A, 3.75 A
  #
  ################################################################################
  #  "First tier" - max. impr. -120.76  meV, min. impr. -5.71 meV
       ionic 5 p auto
       hydro 4 f 8
       hydro 5 g 10
       hydro 3 s 2.6
       hydro 3 d 2.5
  #  "Second tier" - max. impr. -5.00  meV, min. impr. -0.62 meV
  #     hydro 5 f 17.2
  #     hydro 6 h 14
  #     hydro 4 d 4
  #     hydro 5 f 7.6
  #     hydro 3 p 3.3
  #     hydro 4 s 9.4
  #  "Third tier" - max. impr. -0.54  meV, min. impr. -0.14 meV
  #     hydro 4 f 20
  #     hydro 5 g 12.8
  #     hydro 5 d 9.8
  #     hydro 6 h 15.2
  #     hydro 5 s 10
  #     hydro 6 p 9.8
  #  "Fourth tier" - max. impr. -0.15  meV, min. impr. -0.05 meV
  #     hydro 5 f 9.2
  #     hydro 2 s 5.6
  #     hydro 5 f 43.2
  #     hydro 5 d 13.2
  #     hydro 5 g 14
  #     hydro 4 p 4.7
  ################################################################################
  #
  #  FHI-aims code project
  # Volker Blum, Fritz Haber Institute Berlin, 2009
  #
  #  Suggested "tight" defaults for Se atom (to be pasted into control.in file)
  #
  ################################################################################
    species        Se
  #     global species definitions
      nucleus             34
      mass                78.96
  #
      l_hartree           6
  #
      cut_pot             4.0          2.0  1.0
      basis_dep_cutoff    1e-4
  #
      radial_base         55 7.0
      radial_multiplier   2
      angular_grids       specified
        division   0.0830  110
        division   0.1357  194
        division   0.7377  302
        division   0.8610  434
  #      division   0.9640  590
  #      division   1.0773  770
  #      division   2.5539  974
  #      outer_grid  974
        outer_grid  434
  ################################################################################
  #
  #  Definition of "minimal" basis
  #
  ################################################################################
  #     valence basis states
      valence      4  s   2.
      valence      4  p   4.
      valence      3  d  10.
  #     ion occupancy
      ion_occ      4  s   1.
      ion_occ      4  p   3.
      ion_occ      3  d  10.
  ################################################################################
  #
  #  Suggested additional basis functions. For production calculations,
  #  uncomment them one after another (the most important basis functions are
  #  listed first).
  #
  #  Constructed for dimers: 1.85 A, 2.15 A, 2.50 A, 3.00 A, 4.00 A
  #
  ################################################################################
  #  "First tier" - improvements: -336.21 meV to -36.85 meV
       hydro 3 d 4.3
       hydro 2 p 1.6
       hydro 4 f 7.2
       ionic 4 s auto
  #  "Second tier" - improvements: -14.39 meV to -1.49 meV
  #     hydro 5 g 10.4
  #     hydro 4 p 4.5
  #     hydro 4 d 6.2
  #     hydro 4 f 11.2
  #     hydro 1 s 0.65
  #     hydro 6 h 15.2
  #  "Third tier" - improvements: -0.46 meV and below
  #     hydro 5 g 14.4
  #     ionic 4 d auto
  #     hydro 4 f 22.4
  #     hydro 5 f 7.4
  #     hydro 5 p 8
  #     hydro 5 s 9.4
  #  "Fourth tier" - improvements: -0.12 meV and below
  #     hydro 5 d 11.6
  #     hydro 6 h 18
  #     hydro 4 p 4
  #     hydro 5 f 16
  #     hydro 4 s 3.9
  #
  #
  
  -----------------------------------------------------------------------
  Completed first pass over input file control.in .
  -----------------------------------------------------------------------
  
  
  -----------------------------------------------------------------------
  Parsing geometry.in (first pass over file, find array dimensions only).
  The contents of geometry.in will be repeated verbatim below
  unless switched off by setting 'verbatim_writeout .false.' .
  in the first line of geometry.in .
  -----------------------------------------------------------------------
  
  #
  # This is the geometry file that corresponds to the current relaxation step.
  # If you do not want this file to be written, set the "write_restart_geometry" flag to .false.
  #  aims_uuid : F4848E7E-5A5E-4E75-AF42-DC59B79CE9DE
  #
  lattice_vector      5.85676839      0.00000000      0.00000000
  lattice_vector      0.00000000      5.96041904      0.00000000
  lattice_vector      0.00000000      0.00000000      7.42192980
  atom_frac       0.50204388      0.00211336      0.00195271 Pd
  atom_frac       0.00211227      0.00214569      0.50230426 Pd
  atom_frac       0.00219679      0.50206167      0.00201259 Pd
  atom_frac       0.50213549      0.50209534      0.50224322 Pd
  atom_frac       0.61382629      0.12001759      0.40395435 Se
  atom_frac       0.89032985      0.88422835      0.90372022 Se
  atom_frac       0.11388132      0.38426190      0.60038323 Se
  atom_frac       0.39033100      0.61993859      0.10031105 Se
  atom_frac       0.39037972      0.88421047      0.60038608 Se
  atom_frac       0.11393221      0.12001448      0.10031997 Se
  atom_frac       0.89030150      0.61992477      0.40395746 Se
  atom_frac       0.61380475      0.38426287      0.90372994 Se
  #
  # What follows is the current estimated Hessian matrix constructed by the BFGS algorithm.
  # This is NOT the true Hessian matrix of the system.
  # If you do not want this information here, switch it off using the "hessian_to_restart_geometry" keyword.
  #
  trust_radius             0.0122107920
  hessian_block                1       1           5.967484           0.088189          -2.211567           0.088189           6.36044
  hessian_block                1       2          -0.010730           0.436805          -0.020554           0.316951           0.23122
  hessian_block                1       3          -0.031934           0.518531          -0.024406          -0.023837          -0.11186
  hessian_block                1       4           0.508044           0.240290          -0.120551           0.119719          -0.40167
  hessian_block                1       5          -0.016364          -0.442090          -0.152135          -0.279401           0.20330
  hessian_block                1       6          -1.923646          -0.005834           0.673075           0.326584          -0.48627
  hessian_block                1       7          -0.350541           0.237202           0.235996          -0.006863           0.27243
  hessian_block                1       8          -0.243543          -0.588223           0.373468          -0.294686          -1.94641
  hessian_block                1       9          -0.166830           0.024262           0.199154          -0.460127          -0.34536
  hessian_block                1      10          -2.151961           0.811313           1.027504           0.151639          -0.32360
  hessian_block                1      11           0.039392          -0.497477          -0.146249           0.313789           0.05483
  hessian_block                1      12          -0.053459          -0.822968           0.166266          -0.251958          -1.86002
  hessian_block                2       2           5.995731           0.232447           2.301453           0.232447           7.25802
  hessian_block                2       3           0.826484           0.723114           0.428447          -0.379299          -0.47980
  hessian_block                2       4           0.222023           0.569747           0.189335          -0.506127           0.66662
  hessian_block                2       5          -2.062200           0.071121          -0.989480           0.405264          -0.77548
  hessian_block                2       6          -0.449873           0.262324           0.224717          -0.289291          -0.78675
  hessian_block                2       7          -0.087686          -0.710084          -0.378454          -0.388257          -1.44743
  hessian_block                2       8          -0.276752          -0.383746          -0.259739           0.077006          -0.54659
  hessian_block                2       9          -2.032306           0.447947          -0.937966           0.738568          -0.80295
  hessian_block                2      10           0.437373          -0.516878          -0.175902           0.230093           0.76925
  hessian_block                2      11          -0.471443          -0.603277          -0.186736          -0.479846          -3.27942
  hessian_block                2      12          -0.524713          -0.409665          -0.212064          -0.077361           0.84034
  hessian_block                3       3           6.524606          -0.494195           2.353910          -0.494195           6.31156
  hessian_block                3       4           0.359739          -0.234404          -0.043941          -0.326387           0.11077
  hessian_block                3       5          -0.564471           0.135656          -0.266333          -0.279517           0.50829
  hessian_block                3       6          -0.615953           0.288843          -0.435601          -0.007930          -1.81826
  hessian_block                3       7           0.024322           0.129194           0.166171           0.302387          -0.16666
  hessian_block                3       8          -2.206881          -0.278026          -0.850799          -0.725505          -0.26094
  hessian_block                3       9          -0.292808           0.309553           0.124727           0.129612          -0.24214
  hessian_block                3      10           0.338032           0.659361           0.099902           1.120215          -2.13916
  hessian_block                3      11          -0.354860           0.041869          -0.108941          -0.556125           0.28601
  hessian_block                3      12          -2.440363          -0.154714          -1.017678          -0.404200          -0.35075
  hessian_block                4       4           5.935791           0.125840          -1.975678           0.125840           6.94894
  hessian_block                4       5          -0.444432           0.646384           0.193029           0.177959          -2.18905
  hessian_block                4       6          -0.140926           0.561314           0.265499          -0.318906          -0.36456
  hessian_block                4       7          -1.979896          -0.839948           0.709418          -0.301227          -0.19808
  hessian_block                4       8          -0.321904          -0.051834          -0.086161           0.098086          -0.55284
  hessian_block                4       9          -0.319455           0.676822           0.188631           0.125947          -2.36880
  hessian_block                4      10          -0.300780          -0.585851          -0.325718          -0.082273           0.67100
  hessian_block                4      11          -1.846083          -0.094481           0.860259          -0.702004          -1.23815
  hessian_block                4      12          -0.106211           0.274549          -0.077426           0.300946           0.56285
  hessian_block                5       5           5.320740          -0.371509          -1.206733          -0.371509           6.10603
  hessian_block                5       6           0.167319          -0.398070          -0.358708           0.198715          -0.15277
  hessian_block                5       7          -0.391966           0.930427           0.042677          -0.944902           0.14258
  hessian_block                5       8           0.103134           0.083628           0.394844           0.538389          -0.02767
  hessian_block                5       9          -1.355779          -0.406113           1.714035          -0.453046          -1.68063
  hessian_block                5      10          -0.074647           0.504010           0.533211           0.014585          -0.00291
  hessian_block                5      11           0.502276          -0.738903           0.080914           1.048022           0.07563
  hessian_block                5      12           0.382300           0.372223          -0.515847          -0.441324          -0.56030
  hessian_block                6       6           5.889093           0.357676           1.826939           0.357676           5.70328
  hessian_block                6       7           0.124399          -0.076756           0.052562           0.499528           0.01844
  hessian_block                6       8           0.045746           0.380872           0.167497          -0.036897           0.28097
  hessian_block                6       9           0.190900           0.141877           0.081461           0.054235           0.71560
  hessian_block                6      10          -2.069816          -1.108050          -2.561619          -0.901511          -1.84137
  hessian_block                6      11           0.104279           0.338037          -0.143166          -1.015592           0.56833
  hessian_block                6      12           0.244389           0.057172           0.029700           0.333982          -0.18960
  hessian_block                7       7           5.309526           0.654791           1.047853           0.654791           6.05090
  hessian_block                7       8          -0.032185          -0.048492          -0.057604          -0.038412          -0.45787
  hessian_block                7       9           0.424368           0.626089          -0.271919          -0.503181          -0.48802
  hessian_block                7      10           0.110155          -0.520070          -0.059831           0.073147          -0.15845
  hessian_block                7      11          -1.713234           0.349912          -1.684917           0.481853          -2.41854
  hessian_block                7      12           0.128649          -0.222895           0.640861          -0.338232           0.49774
  hessian_block                8       8           4.861177          -0.026138          -0.869026          -0.026138           5.79510
  hessian_block                8       9           0.316066          -0.554863          -0.203540           0.064907           0.27451
  hessian_block                8      10          -0.068891          -0.081699           0.148891          -0.566281          -0.54021
  hessian_block                8      11           0.212144          -0.125802          -0.110347           0.346079           1.32018
  hessian_block                8      12          -0.822203           1.170522           1.811745           1.067254          -1.69118
  hessian_block                9       9           5.061316          -0.575332          -0.834767          -0.575332           6.36903
  hessian_block                9      10          -0.124459           0.511522          -0.057338          -0.218593          -0.00561
  hessian_block                9      11          -0.211192           0.661725          -0.136258          -0.761561           0.60642
  hessian_block                9      12           0.076086          -0.294832           0.784908           0.289912          -0.38500
  hessian_block               10      10           5.817153           0.287182           1.471471           0.287182           6.53069
  hessian_block               10      11          -0.049738          -0.013017           0.307369           0.630941          -1.29948
  hessian_block               10      12          -0.296509          -0.095188          -0.006122          -0.591783          -0.01310
  hessian_block               11      11           5.310757           0.408912           0.879876           0.408912           7.94495
  hessian_block               11      12           0.043611           0.285530          -0.517908           0.272500          -0.97374
  hessian_block               12      12           4.934333          -0.159736          -1.086431          -0.159736           5.76980
  hessian_block_lv             1       1          22.421714          -4.142429           4.698741          -4.142429          23.48857
  hessian_block_lv_atom        1       1           0.231405           0.486472           0.127040          -0.282993          -0.50520
  hessian_block_lv_atom        1       2          -0.526475          -0.870057          -0.186136          -0.060685          -0.50101
  hessian_block_lv_atom        1       3          -0.807951          -1.201562          -0.320018           0.305154           0.58430
  hessian_block_lv_atom        1       4          -0.058629           0.074547           0.023234           0.500033           0.54035
  hessian_block_lv_atom        1       5           0.417323           0.545495           0.388597           0.464499           0.28475
  hessian_block_lv_atom        1       6           0.123687          -0.200083          -0.321462          -0.167278           0.05008
  hessian_block_lv_atom        1       7          -0.264217          -0.670628           0.162212          -0.919955          -1.07334
  hessian_block_lv_atom        1       8           0.286654           0.403087          -0.183229           0.263225           0.37589
  hessian_block_lv_atom        1       9           0.104696           0.178676          -0.218622          -0.898685          -0.64160
  hessian_block_lv_atom        1      10          -0.341935          -0.066488           0.213838          -0.072801          -0.46258
  hessian_block_lv_atom        1      11           0.328231           0.746752          -0.169573           0.929231           1.40864
  hessian_block_lv_atom        1      12           0.507208           0.573790           0.484118          -0.059747          -0.06028
  symmetry_n_params 39 3 36
  symmetry_params a1 b2 c3 x0 x1 x2 x3 x4 x5 x6 x7 x8 x9 x10 x11 x12 x13 x14 x15 x16 x17 x18 x19 x20 x21 x22 x23 x24 x25 x26 x27 x28 x
  symmetry_lv a1 , 0 , 0
  symmetry_lv 0 , b2 , 0
  symmetry_lv 0 , 0 , c3
  symmetry_frac x0 , x1 , x2
  symmetry_frac x3 , x4 , x5
  symmetry_frac x6 , x7 , x8
  symmetry_frac x9 , x10 , x11
  symmetry_frac x12 , x13 , x14
  symmetry_frac x15 , x16 , x17
  symmetry_frac x18 , x19 , x20
  symmetry_frac x21 , x22 , x23
  symmetry_frac x24 , x25 , x26
  symmetry_frac x27 , x28 , x29
  symmetry_frac x30 , x31 , x32
  symmetry_frac x33 , x34 , x35
  
  -----------------------------------------------------------------------
  Completed first pass over input file geometry.in .
  -----------------------------------------------------------------------
  

  Basic array size parameters:
  | Number of species                 :        2
  | Number of atoms                   :       12
  | Number of lattice vectors         :        3
  | Max. basis fn. angular momentum   :        4
  | Max. atomic/ionic basis occupied n:        5
  | Max. number of basis fn. types    :        3
  | Max. radial fns per species/type  :       10
  | Max. logarithmic grid size        :     1444
  | Max. radial integration grid size :      125
  | Max. angular integration grid size:      434
  | Max. angular grid division number :        8
  | Radial grid for Hartree potential :     1444
  | Number of spin channels           :        1

------------------------------------------------------------
          Reading file control.in.
------------------------------------------------------------
  XC: Using PBE gradient-corrected functionals.
  Using libMBD for calculating MBD and TS energies
  Spin treatment: No spin polarisation.
  Found k-point grid:        12        12        10
  Scalar relativistic treatment of kinetic energy: on-site free-atom approximation to ZORA.
  Max energy increase before discarding BFGS move:   0.100000E-01 eV
  Assuming qualitatively harmonic for steps shorter than   0.150000E-01 A.
  S.C.F. convergence parameters will be adjusted in iteration number     3 of each new s.c.f. cycle.
  Geometry relaxation: Modified BFGS - TRM (trust radius method) for lattice optimization.
  Convergence accuracy for geometry relaxation: Maximum force <   0.100000E-01 eV/A.
 
  Reading configuration options for species Pd                  .
  | Found nuclear charge :  46.0000
  | Found atomic mass :    106.420000000000      amu
  | Found l_max for Hartree potential  :   6
  | Found cutoff potl. onset [A], width [A], scale factor :    4.00000    2.00000    1.00000
  | Threshold for basis-dependent cutoff potential is   0.100000E-03
  | Found data for basic radial integration grid :    62 points, outermost radius =    7.000 A
  | Found multiplier for basic radial grid :   2
  | Found angular grid specification: user-specified.
  | Specified grid contains     6 separate shells.
  | Check grid settings after all constraints further below.
  | Found free-atom valence shell :  5 s   1.000
  | Found free-atom valence shell :  4 p   6.000
  | Found free-atom valence shell :  4 d   9.000
  | Found free-ion valence shell :  5 s   0.000
  | Found free-ion valence shell :  4 p   6.000
  | Found free-ion valence shell :  4 d   8.000
  | Found ionic basis function :  5 p , default cutoff radius.
  | Found hydrogenic basis function :  4 f   8.000
  | Found hydrogenic basis function :  5 g  10.000
  | Found hydrogenic basis function :  3 s   2.600
  | Found hydrogenic basis function :  3 d   2.500
  Species Pd                  : Missing cutoff potential type.
  Defaulting to exp(1/x)/(1-x)^2 type cutoff potential.
  Species Pd: No 'logarithmic' tag. Using default grid for free atom:
  | Default logarithmic grid data [bohr] : 0.1000E-03 0.1000E+03 0.1012E+01
  | Will include ionic basis functions of  2.0-fold positive Pd                   ion.
  Species Pd: On-site basis accuracy parameter (for Gram-Schmidt orthonormalisation) not specified.
  Using default value basis_acc =  0.1000000E-03.
  Species Pd                  : Using default innermost maximum threshold i_radial=  2 for radial functions.
  Species Pd                  : Default cutoff onset for free atom density etc. : 0.40000000E+01 AA.
  Species Pd                  : Basic radial grid will be enhanced according to radial_multiplier =   2, to contain   125 grid points.
 
  Reading configuration options for species Se                  .
  | Found nuclear charge :  34.0000
  | Found atomic mass :    78.9600000000000      amu
  | Found l_max for Hartree potential  :   6
  | Found cutoff potl. onset [A], width [A], scale factor :    4.00000    2.00000    1.00000
  | Threshold for basis-dependent cutoff potential is   0.100000E-03
  | Found data for basic radial integration grid :    55 points, outermost radius =    7.000 A
  | Found multiplier for basic radial grid :   2
  | Found angular grid specification: user-specified.
  | Specified grid contains     5 separate shells.
  | Check grid settings after all constraints further below.
  | Found free-atom valence shell :  4 s   2.000
  | Found free-atom valence shell :  4 p   4.000
  | Found free-atom valence shell :  3 d  10.000
  | Found free-ion valence shell :  4 s   1.000
  | Found free-ion valence shell :  4 p   3.000
  | Found free-ion valence shell :  3 d  10.000
  | Found hydrogenic basis function :  3 d   4.300
  | Found hydrogenic basis function :  2 p   1.600
  | Found hydrogenic basis function :  4 f   7.200
  | Found ionic basis function :  4 s , default cutoff radius.
  Species Se                  : Missing cutoff potential type.
  Defaulting to exp(1/x)/(1-x)^2 type cutoff potential.
  Species Se: No 'logarithmic' tag. Using default grid for free atom:
  | Default logarithmic grid data [bohr] : 0.1000E-03 0.1000E+03 0.1012E+01
  | Will include ionic basis functions of  2.0-fold positive Se                   ion.
  Species Se: On-site basis accuracy parameter (for Gram-Schmidt orthonormalisation) not specified.
  Using default value basis_acc =  0.1000000E-03.
  Species Se                  : Using default innermost maximum threshold i_radial=  2 for radial functions.
  Species Se                  : Default cutoff onset for free atom density etc. : 0.40000000E+01 AA.
  Species Se                  : Basic radial grid will be enhanced according to radial_multiplier =   2, to contain   111 grid points.
 
  Finished reading input file 'control.in'. Consistency checks are next.
 
  MPI_IN_PLACE appears to work with this MPI implementation.
  | Keeping use_mpi_in_place .true. (see manual).
  Target number of points in a grid batch is not set. Defaulting to  100
  Method for grid partitioning is not set. Defaulting to parallel hash+maxmin partitioning.
  Batch size limit is not set. Defaulting to    200
  By default, will store active basis functions for each batch.
  If in need of memory, prune_basis_once .false. can be used to disable this option.
  communication_type for Hartree potential was not specified.
  Defaulting to calc_hartree .
  Defaulting to Pulay charge density mixer.
  Pulay mixer: Number of relevant iterations not set.
  Defaulting to    8 iterations.
  Pulay mixer: Number of initial linear mixing iterations not set.
  Defaulting to    0 iterations.
  Work space size for distributed Hartree potential not set.
  Defaulting to   0.200000E+03 MB.
  Mixing parameter for charge density mixing has not been set.
  Using default: charge_mix_param =     0.0500.
  The mixing parameter will be adjusted in iteration number     3 of each s.c.f. cycle (i.e., each geometry step).
  Algorithm-dependent basis array size parameters:
  | n_max_pulay                         :        8
  Maximum number of self-consistency iterations not provided.
  Presetting  1000 iterations.
  Presetting      1001 iterations before the initial mixing cycle
  is restarted anyway using the sc_init_iter criterion / keyword.
  Presetting a factor      1.000 between actual scf density residual
  and density convergence criterion sc_accuracy_rho below which sc_init_iter
  takes no effect.
 * No s.c.f. convergence criteria (sc_accuracy_*) were provided in control.in.
 * The run will proceed with a reasonable default guess, but please check whether.
 * the s.c.f. cycles seem to take too much or too little time.
  No maximum number of relaxation steps, defaulting to     1000
  Using explicit Hessian from geometry.in.
  Maximum energy tolerance by which TRM/BFGS trajectory may increase over multiple steps:   0.300000E-02
  No trust radius initializer. Defaulting to   0.200000E+00 A.
  Unit cell relaxation: Unit cell will be relaxed fully.
  Unit cell relaxation: Analytical stress will be used.
  Analytical stress will be computed.
  Analytical stress calculation: Only the upper triangle is calculated.
                                 Final output is symmetrized.
  Analytical stress calculation: scf convergence accuracy of stress not set.
                                 Analytical stress self-consistency will not be checked explicitly.
                                 Be sure to set other criteria like sc_accuracy_rho tight enough.
 * Notice: The s.c.f. convergence criterion sc_accuracy_rho was not provided.
 * We used to stop in this case, and ask the user to provide reasonable
 * scf convergence criteria. However, this led some users to employ criteria
 * that led to extremely long run times, e.g., for simple relaxation.
 * We now preset a default value for sc_accuracy_rho if it is not set.
 * You may still wish to check if this setting is too tight or too loose for your needs.
 * Based on n_atoms, FHI-aims chose sc_accuracy_rho =  0.141421E-05 .
  Force calculation: scf convergence accuracy of forces not set.
  Defaulting to 'sc_accuracy_forces not_checked'.
  Handling of forces: Unphysical translation and rotation will be removed from forces.
  No accuracy limit for integral partition fn. given. Defaulting to  0.1000E-14.
  No threshold value for u(r) in integrations given. Defaulting to  0.1000E-05.
  No occupation type (smearing scheme) given. Defaulting to Gaussian broadening, width =  0.1000E-01 eV.
  The width will be adjusted in iteration number     3 of each s.c.f. cycle (i.e., each geometry step).
  S.C.F. convergence parameters will be adjusted in iteration number     3 of the first full s.c.f. cycle only.
  No accuracy for occupation numbers given. Defaulting to  0.1000E-12.
  No threshold value for occupation numbers given. Defaulting to  0.0000E+00.
  No accuracy for fermi level given. Defaulting to  0.1000E-19.
  Maximum # of iterations to find E_F not set. Defaulting to  200.
  Preferred method for the eigenvalue solver ('KS_method') not specified in 'control.in'.
  Defaulting to serial version, LAPACK (via ELSI), since more k-points than CPUs available.
  Will not use alltoall communication since running on < 1024 CPUs.
  Threshold for basis singularities not set.
  Default threshold for basis singularities:  0.1000E-04
  partition_type (choice of integration weights) for integrals was not specified.
  | Using a version of the partition function of Stratmann and coworkers ('stratmann_sparse').
  | At each grid point, the set of atoms used to build the partition table is smoothly restricted to
  | only those atoms whose free-atom density would be non-zero at that grid point.
  Partitioning for Hartree potential was not defined. Using partition_type for integrals.
  | Adjusted default value of keyword multip_moments_threshold to:       0.10000000E-11
  | This value may affect high angular momentum components of the Hartree potential in periodic systems.
  Angular momentum expansion for Kerker preconditioner not set explicitly.
  | Using default value of   0
  No explicit requirement for turning off preconditioner.
  | By default, it will be turned off when the charge convergence reaches
  | sc_accuracy_rho  =   0.141421E-05
  No special mixing parameter while Kerker preconditioner is on.
  Using default: charge_mix_param =     0.0500.
  No q(lm)/r^(l+1) cutoff set for long-range Hartree potential.
  | Using default value of  0.100000E-09 .
  | Verify using the multipole_threshold keyword.
  Defaulting to new monopole extrapolation.
  Density update method: automatic selection selected.
  Using density matrix based charge density update.
  Using density matrix based charge density update.
  Using packed matrix style: index .
  Geometry relaxation: A file "geometry.in.next_step" is written out by default after each step.
  | This file contains the geometry of the current relaxation step as well as
  | the current Hessian matrix needed to restart the relaxation algorithm.
  | If you do not want part or all of this information, use the keywords
  | "write_restart_geometry" or "hessian_to_restart_geometry" to switch the output off.
  Defaulting to use time-reversal symmetry for k-point grid.
  Charge integration errors on the 3D integration grid will be compensated
  by explicit normalization and distribution of residual charges.
  Use the "compensate_multipole_errors" flag to change this behaviour.
------------------------------------------------------------


------------------------------------------------------------
          Reading geometry description geometry.in.
------------------------------------------------------------
  Input structure read successfully.
  The structure contains       12 atoms,  and a total of        456.000 electrons.

  Input geometry:
  | Unit cell:
  |        5.85676839        0.00000000        0.00000000
  |        0.00000000        5.96041904        0.00000000
  |        0.00000000        0.00000000        7.42192980
  | Atomic structure:
  |       Atom                x [A]            y [A]            z [A]
  |    1: Species Pd            2.94035473        0.01259651        0.01449288
  |    2: Species Pd            0.01237108        0.01278921        3.72806696
  |    3: Species Pd            0.01286609        2.99249794        0.01493730
  |    4: Species Pd            2.94089127        2.99269862        3.72761392
  |    5: Species Se            3.59503841        0.71535513        2.99812083
  |    6: Species Se            5.21445572        5.27037149        6.70734803
  |    7: Species Se            0.66697652        2.29036195        4.45600219
  |    8: Species Se            2.28607826        3.69509378        0.74450157
  |    9: Species Se            2.28636360        5.27026492        4.45602334
  |   10: Species Se            0.66727457        0.71533659        0.74456777
  |   11: Species Se            5.21428968        3.69501140        2.99814391
  |   12: Species Se            3.59491226        2.29036773        6.70742017

  Lattice parameters for 3D lattice (in Angstroms) :     5.856768    5.960419    7.421930
  Angle(s) between unit vectors (in degrees)       :    90.000000   90.000000   90.000000

  | The smallest distance between any two atoms is         2.41102962 AA.
  | The first atom of this pair is atom number                      7 .
  | The second atom of this pair is atom number                    11 .
  | Wigner-Seitz cell of the first atom image           0    -1     1 .
  | (The Wigner-Seitz cell of the second atom is 0 0 0  by definition.)

  Symmetry information by spglib:
  | Precision set to  0.1E-04
  | Number of Operations  : 1
  | Space group           : 1
  | International         : P1       x
  | Schoenflies           : C1^1

  Quantities derived from the lattice vectors:
  | Reciprocal lattice vector 1:  1.072808  0.000000  0.000000
  | Reciprocal lattice vector 2:  0.000000  1.054152  0.000000
  | Reciprocal lattice vector 3:  0.000000  0.000000  0.846570
  | Unit cell volume                               :   0.259091E+03  A^3

  Range separation radius for Ewald summation (hartree_convergence_parameter):      3.99772949 bohr.

  Fractional coordinates:
                         L1                L2                L3
       atom_frac         0.50204388        0.00211336        0.00195271  Pd
       atom_frac         0.00211227        0.00214569        0.50230426  Pd
       atom_frac         0.00219679        0.50206167        0.00201259  Pd
       atom_frac         0.50213549        0.50209534        0.50224322  Pd
       atom_frac         0.61382629        0.12001759        0.40395435  Se
       atom_frac         0.89032985        0.88422835        0.90372022  Se
       atom_frac         0.11388132        0.38426190        0.60038323  Se
       atom_frac         0.39033100        0.61993859        0.10031105  Se
       atom_frac         0.39037972        0.88421047        0.60038608  Se
       atom_frac         0.11393221        0.12001448        0.10031997  Se
       atom_frac         0.89030150        0.61992477        0.40395746  Se
       atom_frac         0.61380475        0.38426287        0.90372994  Se

  Number of empty states per atom not set in control.in - providing a guess from actual geometry.
  | Total number of empty states used during s.c.f. cycle:       66
  If you use a very high smearing, use empty_states (per atom!) in control.in to increase this value.

  Structure-dependent array size parameters: 
  | Maximum number of distinct radial functions  :       27
  | Maximum number of basis functions            :      468
  | Number of Kohn-Sham states (occupied + empty):      294
------------------------------------------------------------

------------------------------------------------------------
          Preparing all fixed parts of the calculation.
------------------------------------------------------------
  Determining machine precision:
    2.225073858507201E-308
  Setting up grids for atomic and cluster calculations.

  Creating wave function, potential, and density for free atoms.

  Species: Pd

  List of occupied orbitals and eigenvalues:
    n    l              occ      energy [Ha]    energy [eV]
    1    0           2.0000      -913.269104    -24851.3168
    2    0           2.0000      -130.434372     -3549.2998
    3    0           2.0000       -23.521804      -640.0609
    4    0           2.0000        -3.256918       -88.6253
    5    0           1.0000        -0.157260        -4.2793
    2    1           6.0000      -116.910756     -3181.3035
    3    1           6.0000       -19.103344      -519.8284
    4    1           6.0000        -1.998052       -54.3697
    3    2          10.0000       -12.098182      -329.2083
    4    2           9.0000        -0.243389        -6.6230


  Species: Se

  List of occupied orbitals and eigenvalues:
    n    l              occ      energy [Ha]    energy [eV]
    1    0           2.0000      -466.337810    -12689.6975
    2    0           2.0000       -59.202598     -1610.9847
    3    0           2.0000        -7.847116      -213.5309
    4    0           2.0000        -0.634372       -17.2621
    2    1           6.0000       -52.061107     -1416.6548
    3    1           6.0000        -5.620941      -152.9536
    4    1           4.0000        -0.238469        -6.4891
    3    2          10.0000        -1.951949       -53.1152

  Creating fixed part of basis set: Ionic, confined, hydrogenic.
 
  Pd                   ion:

  List of free ionic orbitals and eigenvalues:
    n    l      energy [Ha]    energy [eV]
    1    0      -914.099884    -24873.9234
    2    0      -131.248265     -3571.4470
    3    0       -24.332473      -662.1203
    4    0        -4.059276      -110.4585
    2    1      -117.724296     -3203.4411
    3    1       -19.913908      -541.8850
    4    1        -2.795328       -76.0648
    3    2       -12.908733      -351.2645
    4    2        -1.004248       -27.3270


  List of ionic basis orbitals and eigenvalues:
    n    l      energy [Ha]    energy [eV]    outer radius [A]
    5    1        -0.516938       -14.0666       5.427025

 
  Pd                   hydrogenic:
 
  List of hydrogenic basis orbitals: 
    n    l      effective z      eigenvalue [eV]  inner max. [A]     outer max. [A]     outer radius [A]   
    4    3         8.000000       -54.4226           1.054686           1.054686           4.629581
    5    4        10.000000       -54.4226           1.330451           1.330451           5.043202
    3    0         2.600000        -9.8948           0.150992           2.606197           5.493778
    3    2         2.500000        -9.3396           1.873517           1.873517           5.493778
 
 
  Se                   ion:

  List of free ionic orbitals and eigenvalues:
    n    l      energy [Ha]    energy [eV]
    1    0      -467.261007    -12714.8189
    2    0       -60.104893     -1635.5374
    3    0        -8.743714      -237.9286
    4    0        -1.414053       -38.4783
    2    1       -52.964156     -1441.2280
    3    1        -6.516916      -177.3343
    4    1        -0.961869       -26.1738
    3    2        -2.844511       -77.4031


  List of ionic basis orbitals and eigenvalues:
    n    l      energy [Ha]    energy [eV]    outer radius [A]
    4    0        -1.414046       -38.4782       4.083166

 
  Se                   hydrogenic:
 
  List of hydrogenic basis orbitals: 
    n    l      effective z      eigenvalue [eV]  inner max. [A]     outer max. [A]     outer radius [A]   
    3    2         4.300000       -27.9518           1.103845           1.103845           5.278265
    2    1         1.600000        -8.6828           1.326010           1.326010           5.475439
    4    3         7.200000       -44.0822           1.173422           1.173422           4.965294
 

  Adding cutoff potential to free-atom effective potential.
  Creating atomic-like basis functions for current effective potential.

  Species Pd                  :

  List of atomic basis orbitals and eigenvalues:
    n    l      energy [Ha]    energy [eV]    outer radius [A]
    1    0      -913.269104    -24851.3168       0.223280
    2    0      -130.434372     -3549.2998       0.615909
    3    0       -23.521804      -640.0609       1.414312
    4    0        -3.256918       -88.6253       3.581357
    5    0        -0.157260        -4.2793       5.427025
    2    1      -116.910756     -3181.3035       0.631154
    3    1       -19.103344      -519.8284       1.540671
    4    1        -1.998052       -54.3697       4.408641
    3    2       -12.098182      -329.2083       1.806051
    4    2        -0.243389        -6.6230       5.361084


  Species Se                  :

  List of atomic basis orbitals and eigenvalues:
    n    l      energy [Ha]    energy [eV]    outer radius [A]
    1    0      -466.337810    -12689.6975       0.309561
    2    0       -59.202598     -1610.9847       0.885812
    3    0        -7.847116      -213.5309       2.355489
    4    0        -0.634372       -17.2621       5.214131
    2    1       -52.061107     -1416.6548       0.907737
    3    1        -5.620941      -152.9536       2.694529
    4    1        -0.238469        -6.4891       5.408909
    3    2        -1.951949       -53.1152       4.083166

  Assembling full basis from fixed parts.
  | Species Pd :   atomic orbital   1 s accepted.
  | Species Pd :   atomic orbital   2 s accepted.
  | Species Pd :   atomic orbital   3 s accepted.
  | Species Pd :   atomic orbital   4 s accepted.
  | Species Pd :   atomic orbital   5 s accepted.
  | Species Pd :    hydro orbital   3 s accepted.
  | Species Pd :   atomic orbital   2 p accepted.
  | Species Pd :   atomic orbital   3 p accepted.
  | Species Pd :   atomic orbital   4 p accepted.
  | Species Pd :    ionic orbital   5 p accepted.
  | Species Pd :   atomic orbital   3 d accepted.
  | Species Pd :   atomic orbital   4 d accepted.
  | Species Pd :    hydro orbital   3 d accepted.
  | Species Pd :    hydro orbital   4 f accepted.
  | Species Pd :    hydro orbital   5 g accepted.
  | Species Se :   atomic orbital   1 s accepted.
  | Species Se :   atomic orbital   2 s accepted.
  | Species Se :   atomic orbital   3 s accepted.
  | Species Se :    ionic orbital   4 s accepted.
  | Species Se :   atomic orbital   4 s accepted.
  | Species Se :   atomic orbital   2 p accepted.
  | Species Se :   atomic orbital   3 p accepted.
  | Species Se :   atomic orbital   4 p accepted.
  | Species Se :    hydro orbital   2 p accepted.
  | Species Se :   atomic orbital   3 d accepted.
  | Species Se :    hydro orbital   3 d accepted.
  | Species Se :    hydro orbital   4 f accepted.
 
  Basis size parameters after reduction:
  | Total number of radial functions:       27
  | Total number of basis functions :      468
 
  Per-task memory consumption for arrays in subroutine allocate_ext:
  |           9.993344MB.
  Testing on-site integration grid accuracy.
  |  Species  Function  <phi|h_atom|phi> (log., in eV)  <phi|h_atom|phi> (rad., in eV)
           1        1             -24851.3167505682             -24851.3148165635
           1        2              -3549.2998457785              -3549.2998098031
           1        3               -640.0608571327               -640.0608534886
           1        4                -88.6252603131                -88.6252593316
           1        5                 -4.2849374515                 -4.2849400622
           1        6                  4.9432123540                  4.9432188418
           1        7              -3181.3035399559              -3181.3035364574
           1        8               -519.8284281886               -519.8284264063
           1        9                -54.3697495804                -54.3697489261
           1       10                  0.8628369484                  0.8628370487
           1       11               -329.2082917394               -329.2082912864
           1       12                 -6.6230267036                 -6.6230265076
           1       13                  5.4924295291                  5.4924115607
           1       14                 25.0740861942                 25.0740861175
           1       15                 38.8271273823                 38.8271278029
           2       16             -12689.6974611609             -12689.6967666984
           2       17              -1610.9846578580              -1610.9846472470
           2       18               -213.5308789869               -213.5308777267
           2       19                -17.0464428502                -17.0464426496
           2       20                  6.7356859379                  6.7356842047
           2       21              -1416.6548010133              -1416.6548002108
           2       22               -152.9535734377               -152.9535727493
           2       23                 -6.4896265677                 -6.4896303794
           2       24                  5.2703037283                  5.2701679583
           2       25                -53.1152220964                -53.1152219035
           2       26                  7.6186674138                  7.6186665630
           2       27                 23.1072799052                 23.1072803137

  Preparing densities etc. for the partition functions (integrals / Hartree potential).

  Preparations completed.
  max(cpu_time)          :      0.558 s.
  Wall clock time (cpu1) :      0.660 s.
------------------------------------------------------------

------------------------------------------------------------
          Begin self-consistency loop: Initialization.

          Date     :  20200420, Time     :  204040.411
------------------------------------------------------------

  Initializing index lists of integration centers etc. from given atomic structure:
  Mapping all atomic coordinates to central unit cell.

  Initializing the k-points
  Using symmetry for reducing the k-points
  | k-points reduced from:     1440 to      724
  | Number of k-points                             :       724
  The eigenvectors in the calculations are COMPLEX.
  | K-points in task   0:        30
  | K-points in task   1:        31
  | K-points in task   2:        31
  | K-points in task   3:        31
  | K-points in task   4:        31
  | K-points in task   5:        30
  | K-points in task   6:        30
  | K-points in task   7:        30
  | K-points in task   8:        30
  | K-points in task   9:        30
  | K-points in task  10:        30
  | K-points in task  11:        30
  | K-points in task  12:        30
  | K-points in task  13:        30
  | K-points in task  14:        30
  | K-points in task  15:        30
  | K-points in task  16:        30
  | K-points in task  17:        30
  | K-points in task  18:        30
  | K-points in task  19:        30
  | K-points in task  20:        30
  | K-points in task  21:        30
  | K-points in task  22:        30
  | K-points in task  23:        30
  | Number of basis functions in the Hamiltonian integrals :      5566
  | Number of basis functions in a single unit cell        :       468
  | Number of centers in hartree potential         :      1325
  | Number of centers in hartree multipole         :       769
  | Number of centers in electron density summation:       596
  | Number of centers in basis integrals           :       640
  | Number of centers in integrals                 :       236
  | Number of centers in hamiltonian               :       596
  | Consuming        972 KiB for k_phase.
  | Number of super-cells (origin) [n_cells]                     :         567
  | Number of super-cells (after PM_index) [n_cells]             :          86
  | Number of super-cells in hamiltonian [n_cells_in_hamiltonian]:          86
  | Size of matrix packed + index [n_hamiltonian_matrix_size] :     1294980

  Initializing relaxation algorithms.
  | Estimated reciprocal-space cutoff momentum G_max:         2.42967283 bohr^-1 .
  | Reciprocal lattice points for long-range Hartree potential:     426
  Partitioning the integration grid into batches with parallel hashing+maxmin method.
  | Number of batches:     4168
  | Maximal batch size:     110
  | Minimal batch size:      50
  | Average batch size:      92.163
  | Standard deviation of batch sizes:      10.986

  Integration load balanced across    24 MPI tasks.
  Work distribution over tasks is as follows:
  Task     0 has      16038 integration points.
  Task     1 has      16028 integration points.
  Task     2 has      16030 integration points.
  Task     3 has      16040 integration points.
  Task     4 has      15988 integration points.
  Task     5 has      16029 integration points.
  Task     6 has      15966 integration points.
  Task     7 has      16027 integration points.
  Task     8 has      16032 integration points.
  Task     9 has      15965 integration points.
  Task    10 has      16026 integration points.
  Task    11 has      16034 integration points.
  Task    12 has      15988 integration points.
  Task    13 has      15972 integration points.
  Task    14 has      16021 integration points.
  Task    15 has      15983 integration points.
  Task    16 has      16037 integration points.
  Task    17 has      16021 integration points.
  Task    18 has      15986 integration points.
  Task    19 has      15969 integration points.
  Task    20 has      15982 integration points.
  Task    21 has      15981 integration points.
  Task    22 has      15965 integration points.
  Task    23 has      16028 integration points.
  Initializing partition tables, free-atom densities, potentials, etc. across the integration grid (initialize_grid_storage).
  | initialize_grid_storage: Actual outermost partition radius vs. multipole_radius_free
  | (-- VB: in principle, multipole_radius_free should be larger, hence this output)
  | Species        1: Confinement radius =              6.000000000000000 AA, multipole_radius_free =              6.058219618167466 AA.
  | Species        1: outer_partition_radius set to              6.058219618167466 AA .
  | Species        2: Confinement radius =              6.000000000000000 AA, multipole_radius_free =              6.037996416842453 AA.
  | Species        2: outer_partition_radius set to              6.037996416842453 AA .
  | The sparse table of interatomic distances needs       2904.04 kbyte instead of      3276.80 kbyte of memory.
  | Net number of integration points:   384136
  | of which are non-zero points    :   322046
  | Numerical average free-atom electrostatic potential    :    -17.09223743 eV
  Renormalizing the initial density to the exact electron count on the 3D integration grid.
  | Initial density: Formal number of electrons (from input files) :     456.0000000000
  | Integrated number of electrons on 3D grid     :     456.0000675255
  | Charge integration error                      :       0.0000675255
  | Normalization factor for density and gradient :       0.9999998519
  Renormalizing the free-atom superposition density to the exact electron count on the 3D integration grid.
  | Formal number of electrons (from input files) :     456.0000000000
  | Integrated number of electrons on 3D grid     :     456.0000675255
  | Charge integration error                      :       0.0000675255
  | Normalization factor for density and gradient :       0.9999998519
  Obtaining max. number of non-zero basis functions in each batch (get_n_compute_maxes).
  | Maximal number of non-zero basis functions:     1027 in task     0
  | Maximal number of non-zero basis functions:     1033 in task     1
  | Maximal number of non-zero basis functions:     1045 in task     2
  | Maximal number of non-zero basis functions:     1041 in task     3
  | Maximal number of non-zero basis functions:     1025 in task     4
  | Maximal number of non-zero basis functions:     1018 in task     5
  | Maximal number of non-zero basis functions:     1035 in task     6
  | Maximal number of non-zero basis functions:     1010 in task     7
  | Maximal number of non-zero basis functions:     1018 in task     8
  | Maximal number of non-zero basis functions:     1035 in task     9
  | Maximal number of non-zero basis functions:     1039 in task    10
  | Maximal number of non-zero basis functions:     1021 in task    11
  | Maximal number of non-zero basis functions:     1027 in task    12
  | Maximal number of non-zero basis functions:     1021 in task    13
  | Maximal number of non-zero basis functions:     1030 in task    14
  | Maximal number of non-zero basis functions:     1006 in task    15
  | Maximal number of non-zero basis functions:     1034 in task    16
  | Maximal number of non-zero basis functions:     1026 in task    17
  | Maximal number of non-zero basis functions:     1031 in task    18
  | Maximal number of non-zero basis functions:     1023 in task    19
  | Maximal number of non-zero basis functions:     1015 in task    20
  | Maximal number of non-zero basis functions:     1016 in task    21
  | Maximal number of non-zero basis functions:     1015 in task    22
  | Maximal number of non-zero basis functions:     1020 in task    23
  Allocating       62.985 MB for KS_eigenvector_complex
  Integrating Hamiltonian matrix: batch-based integration.
  Time summed over all CPUs for integration: real work       63.744 s, elapsed       65.098 s
  Integrating overlap matrix.
  Time summed over all CPUs for integration: real work       46.092 s, elapsed       47.129 s
  Decreasing sparse matrix size:
  | Tolerance:  0.1000E-12
  Hamiltonian matrix
  | Array has  1120312 nonzero elements out of  1294980 elements
  | Sparsity factor is 0.135
  Overlap matrix
  | Array has  1033984 nonzero elements out of  1294980 elements
  | Sparsity factor is 0.202
  New size of hamiltonian matrix:     1120404

  Updating Kohn-Sham eigenvalues and eigenvectors using ELSI and the (modified) LAPACK eigensolver.
  Singularity check in k-point 24, task 0 (analysis for other k-points/tasks may follow below):
  Overlap matrix is not singular
  | Lowest and highest eigenvalues :  0.6583E-03,  0.7295E+01
  Finished singularity check of overlap matrix
  | Time :     0.076 s
  Starting LAPACK eigensolver
  Finished Cholesky decomposition
  | Time :     0.018 s
  Finished transformation to standard eigenproblem
  | Time :     0.020 s
  Finished solving standard eigenproblem
  | Time :     0.072 s
  Finished back-transformation of eigenvectors
  | Time :     0.008 s

  Obtaining occupation numbers and chemical potential using ELSI.
  | Chemical potential (Fermi level):    -4.62959735 eV
  Writing Kohn-Sham eigenvalues.
  K-point:       1 at    0.000000    0.000000    0.000000 (in units of recip. lattice)

  State    Occupation    Eigenvalue [Ha]    Eigenvalue [eV]
      1       2.00000        -913.279479       -24851.59906
      2       2.00000        -913.279465       -24851.59867
      3       2.00000        -913.279464       -24851.59865
      4       2.00000        -913.279462       -24851.59861
      5       2.00000        -466.350235       -12690.03554
      6       2.00000        -466.350231       -12690.03545
      7       2.00000        -466.350217       -12690.03507
      8       2.00000        -466.350217       -12690.03507
      9       2.00000        -466.350216       -12690.03503
     10       2.00000        -466.350216       -12690.03503
     11       2.00000        -466.350213       -12690.03497
     12       2.00000        -466.350205       -12690.03475
     13       2.00000        -130.445063        -3549.59077
     14       2.00000        -130.445049        -3549.59037
     15       2.00000        -130.445048        -3549.59035
     16       2.00000        -130.445046        -3549.59031
     17       2.00000        -116.921471        -3181.59511
     18       2.00000        -116.921462        -3181.59487
     19       2.00000        -116.921457        -3181.59471
     20       2.00000        -116.921456        -3181.59469
     21       2.00000        -116.921454        -3181.59465
     22       2.00000        -116.921448        -3181.59447
     23       2.00000        -116.921447        -3181.59445
     24       2.00000        -116.921446        -3181.59441
     25       2.00000        -116.921409        -3181.59341
     26       2.00000        -116.921394        -3181.59302
     27       2.00000        -116.921394        -3181.59300
     28       2.00000        -116.921392        -3181.59296
     29       2.00000         -59.215447        -1611.33430
     30       2.00000         -59.215444        -1611.33421
     31       2.00000         -59.215430        -1611.33383
     32       2.00000         -59.215429        -1611.33382
     33       2.00000         -59.215428        -1611.33378
     34       2.00000         -59.215428        -1611.33378
     35       2.00000         -59.215426        -1611.33372
     36       2.00000         -59.215418        -1611.33350
     37       2.00000         -52.073964        -1417.00465
     38       2.00000         -52.073960        -1417.00455
     39       2.00000         -52.073946        -1417.00417
     40       2.00000         -52.073946        -1417.00416
     41       2.00000         -52.073945        -1417.00413
     42       2.00000         -52.073944        -1417.00412
     43       2.00000         -52.073942        -1417.00406
     44       2.00000         -52.073938        -1417.00395
     45       2.00000         -52.073935        -1417.00386
     46       2.00000         -52.073934        -1417.00384
     47       2.00000         -52.073921        -1417.00348
     48       2.00000         -52.073920        -1417.00347
     49       2.00000         -52.073919        -1417.00343
     50       2.00000         -52.073919        -1417.00343
     51       2.00000         -52.073917        -1417.00337
     52       2.00000         -52.073908        -1417.00315
     53       2.00000         -52.073891        -1417.00267
     54       2.00000         -52.073888        -1417.00258
     55       2.00000         -52.073874        -1417.00220
     56       2.00000         -52.073874        -1417.00220
     57       2.00000         -52.073872        -1417.00216
     58       2.00000         -52.073872        -1417.00215
     59       2.00000         -52.073870        -1417.00210
     60       2.00000         -52.073862        -1417.00188
     61       2.00000         -23.533256         -640.37248
     62       2.00000         -23.533240         -640.37205
     63       2.00000         -23.533240         -640.37203
     64       2.00000         -23.533238         -640.37199
     65       2.00000         -19.115049         -520.14694
     66       2.00000         -19.115033         -520.14651
     67       2.00000         -19.115032         -520.14650
     68       2.00000         -19.115030         -520.14644
     69       2.00000         -19.114962         -520.14457
     70       2.00000         -19.114946         -520.14415
     71       2.00000         -19.114945         -520.14412
     72       2.00000         -19.114944         -520.14408
     73       2.00000         -19.114432         -520.13016
     74       2.00000         -19.114417         -520.12975
     75       2.00000         -19.114416         -520.12973
     76       2.00000         -19.114415         -520.12969
     77       2.00000         -12.109856         -329.52594
     78       2.00000         -12.109840         -329.52550
     79       2.00000         -12.109839         -329.52548
     80       2.00000         -12.109837         -329.52544
     81       2.00000         -12.109820         -329.52497
     82       2.00000         -12.109804         -329.52454
     83       2.00000         -12.109804         -329.52452
     84       2.00000         -12.109802         -329.52448
     85       2.00000         -12.109479         -329.51568
     86       2.00000         -12.109463         -329.51526
     87       2.00000         -12.109463         -329.51525
     88       2.00000         -12.109461         -329.51520
     89       2.00000         -12.109423         -329.51416
     90       2.00000         -12.109408         -329.51375
     91       2.00000         -12.109407         -329.51372
     92       2.00000         -12.109405         -329.51369
     93       2.00000         -12.109341         -329.51193
     94       2.00000         -12.109326         -329.51152
     95       2.00000         -12.109325         -329.51150
     96       2.00000         -12.109324         -329.51146
     97       2.00000          -7.861746         -213.92898
     98       2.00000          -7.861742         -213.92888
     99       2.00000          -7.861727         -213.92847
    100       2.00000          -7.861725         -213.92843
    101       2.00000          -7.861724         -213.92839
    102       2.00000          -7.861723         -213.92838
    103       2.00000          -7.861720         -213.92828
    104       2.00000          -7.861711         -213.92804
    105       2.00000          -5.636154         -153.36754
    106       2.00000          -5.636150         -153.36744
    107       2.00000          -5.636133         -153.36698
    108       2.00000          -5.636133         -153.36697
    109       2.00000          -5.636132         -153.36697
    110       2.00000          -5.636130         -153.36690
    111       2.00000          -5.636127         -153.36683
    112       2.00000          -5.636119         -153.36660
    113       2.00000          -5.635900         -153.36065
    114       2.00000          -5.635898         -153.36058
    115       2.00000          -5.635886         -153.36026
    116       2.00000          -5.635878         -153.36005
    117       2.00000          -5.635828         -153.35868
    118       2.00000          -5.635827         -153.35866
    119       2.00000          -5.635817         -153.35838
    120       2.00000          -5.635809         -153.35816
    121       2.00000          -5.635246         -153.34284
    122       2.00000          -5.635242         -153.34274
    123       2.00000          -5.635227         -153.34233
    124       2.00000          -5.635226         -153.34231
    125       2.00000          -5.635225         -153.34227
    126       2.00000          -5.635225         -153.34226
    127       2.00000          -5.635223         -153.34223
    128       2.00000          -5.635215         -153.34199
    129       2.00000          -3.273902          -89.08741
    130       2.00000          -3.273880          -89.08680
    131       2.00000          -3.273878          -89.08675
    132       2.00000          -3.273876          -89.08670
    133       2.00000          -2.020174          -54.97174
    134       2.00000          -2.020154          -54.97118
    135       2.00000          -2.020129          -54.97050
    136       2.00000          -2.020125          -54.97040
    137       2.00000          -2.019173          -54.94451
    138       2.00000          -2.019154          -54.94399
    139       2.00000          -2.019122          -54.94310
    140       2.00000          -2.019114          -54.94290
    141       2.00000          -2.013021          -54.77710
    142       2.00000          -2.013002          -54.77658
    143       2.00000          -2.013000          -54.77651
    144       2.00000          -2.012998          -54.77647
    145       2.00000          -1.969145          -53.58315
    146       2.00000          -1.969124          -53.58260
    147       2.00000          -1.969118          -53.58241
    148       2.00000          -1.969095          -53.58179
    149       2.00000          -1.968112          -53.55505
    150       2.00000          -1.968094          -53.55456
    151       2.00000          -1.968091          -53.55449
    152       2.00000          -1.968073          -53.55400
    153       2.00000          -1.967701          -53.54386
    154       2.00000          -1.967686          -53.54347
    155       2.00000          -1.967685          -53.54344
    156       2.00000          -1.967670          -53.54302
    157       2.00000          -1.967553          -53.53985
    158       2.00000          -1.967544          -53.53960
    159       2.00000          -1.967539          -53.53946
    160       2.00000          -1.967527          -53.53914
    161       2.00000          -1.967283          -53.53248
    162       2.00000          -1.967268          -53.53208
    163       2.00000          -1.967257          -53.53179
    164       2.00000          -1.967241          -53.53135
    165       2.00000          -1.967230          -53.53106
    166       2.00000          -1.967214          -53.53061
    167       2.00000          -1.967207          -53.53042
    168       2.00000          -1.967192          -53.53003
    169       2.00000          -1.967162          -53.52921
    170       2.00000          -1.967153          -53.52896
    171       2.00000          -1.967150          -53.52886
    172       2.00000          -1.967144          -53.52872
    173       2.00000          -1.967140          -53.52861
    174       2.00000          -1.967137          -53.52852
    175       2.00000          -1.967132          -53.52839
    176       2.00000          -1.967124          -53.52817
    177       2.00000          -1.966614          -53.51428
    178       2.00000          -1.966603          -53.51400
    179       2.00000          -1.966601          -53.51394
    180       2.00000          -1.966588          -53.51359
    181       2.00000          -1.966266          -53.50482
    182       2.00000          -1.966260          -53.50464
    183       2.00000          -1.966251          -53.50440
    184       2.00000          -1.966244          -53.50423
    185       2.00000          -0.759226          -20.65959
    186       2.00000          -0.740021          -20.13699
    187       2.00000          -0.719987          -19.59185
    188       2.00000          -0.718365          -19.54770
    189       2.00000          -0.652837          -17.76460
    190       2.00000          -0.640884          -17.43933
    191       2.00000          -0.639598          -17.40435
    192       2.00000          -0.627604          -17.07796
    193       2.00000          -0.418278          -11.38192
    194       2.00000          -0.410456          -11.16907
    195       2.00000          -0.389534          -10.59977
    196       2.00000          -0.376479          -10.24450
    197       2.00000          -0.370674          -10.08655
    198       2.00000          -0.369180          -10.04590
    199       2.00000          -0.366145           -9.96332
    200       2.00000          -0.366028           -9.96012
    201       2.00000          -0.364489           -9.91824
    202       2.00000          -0.362717           -9.87002
    203       2.00000          -0.361286           -9.83110
    204       2.00000          -0.351549           -9.56614
    205       2.00000          -0.342239           -9.31279
    206       2.00000          -0.330969           -9.00612
    207       2.00000          -0.324766           -8.83734
    208       2.00000          -0.316933           -8.62417
    209       2.00000          -0.316606           -8.61528
    210       2.00000          -0.305726           -8.31922
    211       2.00000          -0.288615           -7.85361
    212       2.00000          -0.286415           -7.79374
    213       2.00000          -0.284883           -7.75205
    214       2.00000          -0.280003           -7.61927
    215       2.00000          -0.279165           -7.59647
    216       2.00000          -0.277231           -7.54384
    217       2.00000          -0.276122           -7.51366
    218       2.00000          -0.275315           -7.49169
    219       2.00000          -0.273697           -7.44768
    220       2.00000          -0.270311           -7.35554
    221       2.00000          -0.265439           -7.22295
    222       2.00000          -0.263965           -7.18286
    223       2.00000          -0.263493           -7.17001
    224       2.00000          -0.257962           -7.01951
    225       2.00000          -0.224024           -6.09599
    226       2.00000          -0.215040           -5.85154
    227       2.00000          -0.212827           -5.79133
    228       0.00000          -0.163974           -4.46197
    229       0.00000          -0.153224           -4.16943
    230       0.00000          -0.135173           -3.67824
    231       0.00000          -0.129864           -3.53377
    232       0.00000          -0.128815           -3.50525
    233       0.00000          -0.126167           -3.43317
    234       0.00000          -0.115820           -3.15163
    235       0.00000          -0.115068           -3.13115
    236       0.00000          -0.082206           -2.23694
    237       0.00000          -0.037273           -1.01424
    238       0.00000          -0.030110           -0.81933
    239       0.00000          -0.002038           -0.05547
    240       0.00000           0.022853            0.62186
    241       0.00000           0.026068            0.70934
    242       0.00000           0.027799            0.75646
    243       0.00000           0.058024            1.57891
    244       0.00000           0.089302            2.43004
    245       0.00000           0.101807            2.77031
    246       0.00000           0.111642            3.03794
    247       0.00000           0.118415            3.22225
    248       0.00000           0.123053            3.34845
    249       0.00000           0.124791            3.39573
    250       0.00000           0.125721            3.42105
    251       0.00000           0.137923            3.75307
    252       0.00000           0.152021            4.13669
    253       0.00000           0.159892            4.35087
    254       0.00000           0.170710            4.64526
    255       0.00000           0.176953            4.81515
    256       0.00000           0.189754            5.16346
    257       0.00000           0.192000            5.22458
    258       0.00000           0.199134            5.41872
    259       0.00000           0.220299            5.99463
    260       0.00000           0.231653            6.30359
    261       0.00000           0.247471            6.73402
    262       0.00000           0.258093            7.02308
    263       0.00000           0.267346            7.27485
    264       0.00000           0.280016            7.61963
    265       0.00000           0.281565            7.66178
[...]
  |                x                y                z                |
  |                                                                   |
  |  x        -0.00021327       0.00000183       0.00000510           |
  |  y         0.00000183       0.00019062      -0.00001362           |
  |  z         0.00000510      -0.00001362      -0.00006840           |
  |                                                                   |
  |  Pressure:       0.00003035   [eV/A**3]                           |
  |                                                                   |
  +-------------------------------------------------------------------+

 * Warning: Stress tensor is anisotropic. Be aware that pressure is an isotropic quantity.


  Leaving Libmbd.

  Timings for VdW correction (Tkatchenko-Scheffler 2009 or later):
  | CPU time:        8.629 s, Wall clock time:        8.631 s.
  Removing unitary transformations (pure translations, rotations) from forces on atoms.
  Atomic forces before filtering:
  | Net force on center of mass :   0.443690E-04 -0.453290E-04  0.100409E-04 eV/A
  Atomic forces after filtering:
  | Net force on center of mass :  -0.348449E-18  0.000000E+00 -0.174225E-17 eV/A

  Energy and forces in a compact form:
  | Total energy uncorrected      :         -0.108791111497535E+07 eV
  | Total energy corrected        :         -0.108791111612985E+07 eV  <-- do not rely on this value for anything but (periodic) metals
  | Electronic free energy        :         -0.108791111728436E+07 eV
  Total atomic forces (unitary forces cleaned) [eV/Ang]:
  |    1         -0.422082424691178E-03         -0.420832084945865E-04         -0.540698469331814E-03
  |    2         -0.307150416554425E-02         -0.210304482209622E-02         -0.960513187182388E-03
  |    3         -0.290977074099575E-02          0.240439569517198E-02         -0.151286428458632E-02
  |    4         -0.261498960588285E-02         -0.423448377974675E-03          0.529356063813294E-03
  |    5          0.101072782166309E-02         -0.398246204725545E-03         -0.545572583728445E-02
  |    6          0.355268553482989E-02         -0.527976557083907E-02         -0.341135947973365E-02
  |    7          0.193689375135899E-03          0.118714110233683E-03          0.375423340168413E-02
  |    8          0.258318007860467E-02         -0.229032400792422E-02          0.683920705338237E-03
  |    9          0.200110443580289E-02          0.120849713315325E-02          0.353583566263068E-02
  |   10         -0.156484590923040E-02          0.340889776479521E-02          0.691795311787327E-02
  |   11          0.259046525359295E-02          0.171621403703394E-02         -0.606977785383273E-02
  |   12         -0.134865965328496E-02          0.168019345166627E-02          0.252964016061174E-02

  ------------------------------------ 
  Start decomposition of the XC Energy 
  ------------------------------------ 
  X and C from original XC functional choice 
  Hartree-Fock Energy :          0.000000000 Ha              0.000000000 eV
  X Energy            :      -1261.088216983 Ha         -34315.956360751 eV
  C Energy            :        -23.237273889 Ha           -632.318394528 eV
  Total XC Energy     :      -1284.325490872 Ha         -34948.274755279 eV
  ------------------------------------ 
  LDA X and C from self-consistent density 
  X Energy LDA        :      -1197.518615623 Ha         -32586.139495621 eV
  C Energy LDA        :        -42.068296439 Ha          -1144.736589651 eV
  ------------------------------------ 
  End decomposition of the XC Energy 
  ------------------------------------ 

------------------------------------------------------------
  Relaxation / MD: End force evaluation.       :  max(cpu_time)    wall_clock(cpu1)
  | Time for this force evaluation             :      372.166 s         372.533 s

------------------------------------------------------------
  Geometry optimization: Attempting to predict improved coordinates.

  +-------------------------------------------------------------------+
  | Generalized derivatives on lattice vectors [eV/A]                 |
  +-------------------------------------------------------------------+
  |lattice_vector      -0.00952677       0.00008188       0.00022764  |
  |lattice_vector       0.00008039       0.00835973      -0.00059720  |
  |lattice_vector       0.00017747      -0.00047421      -0.00238203  |
  +-------------------------------------------------------------------+
  | Forces on lattice vectors cleaned from atomic contributions [eV/A]|
  +-------------------------------------------------------------------+
  |lattice_vector       0.00952677      -0.00008188      -0.00022764  |
  |lattice_vector      -0.00008039      -0.00835973       0.00059720  |
  |lattice_vector      -0.00017747       0.00047421       0.00238203  |
  +-------------------------------------------------------------------+
  Symmetrized total atomic cartesian forces [eV/Ang]:
  |   1    -0.4220824247E-03    -0.4208320849E-04    -0.5406984693E-03
  |   2    -0.3071504166E-02    -0.2103044822E-02    -0.9605131872E-03
  |   3    -0.2909770741E-02     0.2404395695E-02    -0.1512864285E-02
  |   4    -0.2614989606E-02    -0.4234483780E-03     0.5293560638E-03
  |   5     0.1010727822E-02    -0.3982462047E-03    -0.5455725837E-02
  |   6     0.3552685535E-02    -0.5279765571E-02    -0.3411359480E-02
  |   7     0.1936893751E-03     0.1187141102E-03     0.3754233402E-02
  |   8     0.2583180079E-02    -0.2290324008E-02     0.6839207053E-03
  |   9     0.2001104436E-02     0.1208497133E-02     0.3535835663E-02
  |  10    -0.1564845909E-02     0.3408897765E-02     0.6917953118E-02
  |  11     0.2590465254E-02     0.1716214037E-02    -0.6069777854E-02
  |  12    -0.1348659653E-02     0.1680193452E-02     0.2529640161E-02
  +-------------------------------------------------------------------+
  | Symmetrized forces on lattice vectors cleaned from symmetrized
  | atomic contributions [eV/A]|
  +-------------------------------------------------------------------+
  |lattice_vector       0.00952677       0.00000000       0.00000000  |
  |lattice_vector       0.00000000      -0.00835973       0.00000000  |
  |lattice_vector       0.00000000       0.00000000       0.00238203  |
  +-------------------------------------------------------------------+
  Removing unitary transformations (pure translations, rotations) from forces on atoms.
  Atomic forces before filtering:
  | Net force on center of mass :  -0.522674E-18 -0.696899E-18 -0.418139E-17 eV/A
  Atomic forces after filtering:
  | Net force on center of mass :  -0.174225E-18 -0.696899E-18 -0.104535E-17 eV/A
  Net remaining forces (excluding translations, rotations) in present geometry:
  || Forces on atoms   || =   0.691795E-02 eV/A.
  || Forces on lattice || =   0.952677E-02 eV/A^3.
  Maximum force component is  0.952677E-02 eV/A.
  Present geometry is converged.

  Symmetry-reduced parameters:
  | atomic   1          0.502087098823824E+00
  | atomic   2          0.211452258585027E-02
  | atomic   3          0.199970026247273E-02
  | atomic   4          0.212434772738282E-02
  | atomic   5          0.212727950278391E-02
  | atomic   6          0.502225080333102E+00
  | atomic   7          0.216937999573643E-02
  | atomic   8          0.502074787666486E+00
  | atomic   9          0.199102016259399E-02
  | atomic  10          0.502153479371035E+00
  | atomic  11          0.502095430182267E+00
  | atomic  12          0.502234972344624E+00
  | atomic  13          0.614273404136857E+00
  | atomic  14          0.120474637708752E+00
  | atomic  15          0.405461681090705E+00
  | atomic  16          0.889858964636806E+00
  | atomic  17          0.883785648013491E+00
  | atomic  18          0.905265946694742E+00
  | atomic  19          0.114286324302728E+00
  | atomic  20          0.383748258484240E+00
  | atomic  21          0.598932545267799E+00
  | atomic  22          0.389937102250361E+00
  | atomic  23          0.620484787522577E+00
  | atomic  24          0.988414575332575E-01
  | atomic  25          0.389895714289572E+00
  | atomic  26          0.883705613888871E+00
  | atomic  27          0.598941635722065E+00
  | atomic  28          0.114302306132503E+00
  | atomic  29          0.120428235433768E+00
  | atomic  30          0.987440707770917E-01
  | atomic  31          0.889897249999522E+00
  | atomic  32          0.620477517947255E+00
  | atomic  33          0.405448968483456E+00
  | atomic  34          0.614289695175374E+00
  | atomic  35          0.383758374616850E+00
  | atomic  36          0.905187999179419E+00
  | lattice  1          0.584718147490366E+01
  | lattice  2          0.595560704242517E+01
  | lattice  3          0.750033685256415E+01
  Symmetry-reduced forces:
  | atomic   1         -0.246799253453668E-02
  | atomic   2         -0.250631052878206E-03
  | atomic   3         -0.405542065565443E-02
  | atomic   4         -0.179596422568598E-01
  | atomic   5         -0.125249085530120E-01
  | atomic   6         -0.720417245519792E-02
  | atomic   7         -0.170139575729671E-01
  | atomic   8          0.143196359349430E-01
  | atomic   9         -0.113469917466109E-01
  | atomic  10         -0.152903187805838E-01
  | atomic  11         -0.252189214196949E-02
  | atomic  12          0.397034879354716E-02
  | atomic  13          0.590990899499813E-02
  | atomic  14         -0.237179790148255E-02
  | atomic  15         -0.409197815548710E-01
  | atomic  16          0.207731970454155E-01
  | atomic  17         -0.314442090160431E-01
  | atomic  18         -0.255863452231904E-01
  | atomic  19          0.113253692618029E-02
  | atomic  20          0.707014590942960E-03
  | atomic  21          0.281580151357788E-01
  | atomic  22          0.151043227019574E-01
  | atomic  23         -0.136402697910289E-01
  | atomic  24          0.512963567048005E-02
  | atomic  25          0.117008207863742E-01
  | atomic  26          0.719733403695811E-02
  | atomic  27          0.265199585250395E-01
  | atomic  28         -0.914993801153075E-02
  | atomic  29          0.203020555349218E-01
  | atomic  30          0.518869787142960E-01
  | atomic  31          0.151469204421903E-01
  | atomic  32          0.102210964052683E-01
  | atomic  33         -0.455253785239794E-01
  | atomic  34         -0.788585774063782E-02
  | atomic  35          0.100065719533803E-01
  | atomic  36          0.189731533203626E-01
  | lattice  1          0.952676730053506E-02
  | lattice  2         -0.835972836756026E-02
  | lattice  3          0.238203083320140E-02
------------------------------------------------------------
  Final atomic structure:
                         x [A]             y [A]             z [A]
  lattice_vector         5.84718147        0.00000000        0.00000000
  lattice_vector         0.00000000        5.95560704        0.00000000
  lattice_vector         0.00000000        0.00000000        7.50033685

            atom        -2.91138709        0.01259327        0.01499843  Pd
            atom         0.01242145        0.01266924       -3.73347957  Pd
            atom         0.01268476       -2.96544690        0.01493332  Pd
            atom        -2.91099895       -2.96532396       -3.73340538  Pd
            atom        -2.25541341        0.71749960        3.04109919  Se
            atom        -0.64401462       -0.69212701       -0.71053731  Se
            atom         0.66825288        2.28545383       -3.00814101  Se
            atom         2.28003300       -2.26024347        0.74134423  Se
            atom         2.27979100       -0.69260366       -3.00807283  Se
            atom         0.66834633        0.71722325        0.74061379  Se
            atom        -0.64379076       -2.26028677        3.04100384  Se
            atom        -2.25531815        2.28551408       -0.71112194  Se

  Fractional coordinates:
                         L1                L2                L3
       atom_frac        -0.49791290        0.00211452        0.00199970  Pd
       atom_frac         0.00212435        0.00212728       -0.49777492  Pd
       atom_frac         0.00216938       -0.49792521        0.00199102  Pd
       atom_frac        -0.49784652       -0.49790457       -0.49776503  Pd
       atom_frac        -0.38572660        0.12047464        0.40546168  Se
       atom_frac        -0.11014104       -0.11621435       -0.09473405  Se
       atom_frac         0.11428632        0.38374826       -0.40106745  Se
       atom_frac         0.38993710       -0.37951521        0.09884146  Se
       atom_frac         0.38989571       -0.11629439       -0.40105836  Se
       atom_frac         0.11430231        0.12042824        0.09874407  Se
       atom_frac        -0.11010275       -0.37952248        0.40544897  Se
       atom_frac        -0.38571030        0.38375837       -0.09481200  Se
------------------------------------------------------------

------------------------------------------------------------------------------
  Final output of selected total energy values:

  The following output summarizes some interesting total energy values
  at the end of a run (AFTER all relaxation, molecular dynamics, etc.).

  | Total energy of the DFT / Hartree-Fock s.c.f. calculation      :       -1087911.114975351 eV
  | Final zero-broadening corrected energy (caution - metals only) :       -1087911.116129855 eV
  | For reference only, the value of 1 Hartree used in FHI-aims is :             27.211384500 eV
  | For reference only, the overall average (free atom contribution
  | + realspace contribution) of the electrostatic potential after
  | s.c.f. convergence is                                          :            -16.964282881 eV

  Before relying on these values, please be sure to understand exactly which
  total energy value is referred to by a given number. Different objects may
  all carry the same name 'total energy'. Definitions:

  Total energy of the DFT / Hartree-Fock s.c.f. calculation:
  | Note that this energy does not include ANY quantities calculated after the
  | s.c.f. cycle, in particular not ANY RPA, MP2, etc. many-body perturbation terms.

  Final zero-broadening corrected energy:
  | For metallic systems only, a broadening of the occupation numbers at the Fermi
  | level can be extrapolated back to zero broadening by an electron-gas inspired
  | formula. For all systems that are not real metals, this value can be
  | meaningless and should be avoided.

------------------------------------------------------------------------------
  Methods described in the following list of references were used in this FHI-aims run.
  If you publish the results, please make sure to cite these reference if they apply.
  FHI-aims is an academic code, and for our developers (often, Ph.D. students
  and postdocs), scientific credit in the community is essential.
  Thank you for helping us!

  For any use of FHI-aims, please cite:

    Volker Blum, Ralf Gehrke, Felix Hanke, Paula Havu, Ville Havu,
    Xinguo Ren, Karsten Reuter, and Matthias Scheffler
    'Ab initio molecular simulations with numeric atom-centered orbitals'
    Computer Physics Communications 180, 2175-2196 (2009)
    http://dx.doi.org/10.1016/j.cpc.2009.06.022


  For the analytical stress tensor used in your run, please cite:

    Franz Knuth, Christian Carbogno, Viktor Atalla, Volker Blum, Matthias Scheffler
    'All-electron formalism for total energy strain derivatives and
    stress tensor components for numeric atom-centered orbitals'
    Computer Physics Communications 190, 33-50 (2015).
    http://dx.doi.org/10.1016/j.cpc.2015.01.003


  The provided symmetry information was generated with SPGlib:

    Atsushi Togo, Yusuke Seto, Dimitar Pashov
    SPGlib 1.7.3 obtained from http://spglib.sourceforge.net
    Copyright (C) 2008 Atsushi Togo


  The ELSI infrastructure was used in your run to solve the Kohn-Sham electronic structure.
  Please check out http://elsi-interchange.org to learn more.
  If scalability is important for your project, please acknowledge ELSI by citing:

    V. W-z. Yu, F. Corsetti, A. Garcia, W. P. Huhn, M. Jacquelin, W. Jia,
    B. Lange, L. Lin, J. Lu, W. Mi, A. Seifitokaldani, A. Vazquez-Mayagoitia,
    C. Yang, H. Yang, and V. Blum
    'ELSI: A unified software interface for Kohn-Sham electronic structure solvers'
    Computer Physics Communications 222, 267-285 (2018).
    http://dx.doi.org/10.1016/j.cpc.2017.09.007


  For the real-space grid partitioning and parallelization used in this calculation, please cite:

    Ville Havu, Volker Blum, Paula Havu, and Matthias Scheffler,
    'Efficient O(N) integration for all-electron electronic structure calculation'
    'using numerically tabulated basis functions'
    Journal of Computational Physics 228, 8367-8379 (2009).
    http://dx.doi.org/10.1016/j.jcp.2009.08.008

  Of course, there are many other important community references, e.g., those cited in the
  above references. Our list is limited to references that describe implementations in the
  FHI-aims code. The reason is purely practical (length of this list) - please credit others as well.

------------------------------------------------------------
          Leaving FHI-aims.
          Date     :  20200420, Time     :  211958.671

          Computational steps:
          | Number of self-consistency cycles          :          106
          | Number of SCF (re)initializations          :            5
          | Number of relaxation steps                 :            4

          Detailed time accounting                     :  max(cpu_time)    wall_clock(cpu1)
          | Total time                                 :     2358.850 s        2359.884 s
          | Preparation time                           :        0.558 s           0.660 s
          | Boundary condition initalization           :        0.614 s           0.613 s
          | Grid partitioning                          :        1.744 s           1.744 s
          | Preloading free-atom quantities on grid    :        4.681 s           4.682 s
          | Free-atom superposition energy             :        0.683 s           0.683 s
          | Total time for integrations                :      299.201 s         299.199 s
          | Total time for solution of K.-S. equations :      478.235 s         478.507 s
          | Total time for EV reorthonormalization     :        5.870 s           5.690 s
          | Total time for density & force components  :     1207.573 s        1207.612 s
          | Total time for mixing & preconditioning    :       74.036 s          74.039 s
          | Total time for Hartree multipole update    :        0.449 s           0.461 s
          | Total time for Hartree multipole sum       :      238.427 s         238.431 s
          | Total time for total energy evaluation     :        0.714 s           0.740 s
          | Total time for scaled ZORA corrections     :        0.000 s           0.000 s
          | Total time for vdW correction              :       43.292 s          43.309 s

          Partial memory accounting:
          | Residual value for overall tracked memory usage across tasks:     0.000000 MB (should be 0.000000 MB)
          | Peak values for overall tracked memory usage:
          |   Minimum:      172.519 MB (on task 21 after allocating d_wave)
          |   Maximum:      177.294 MB (on task  2 after allocating d_wave)
          |   Average:      173.612 MB
          | Largest tracked array allocation:
          |   Minimum:       62.985 MB (KS_eigenvector_complex on task  0)
          |   Maximum:       65.084 MB (KS_eigenvector_complex on task  1)
          |   Average:       63.335 MB
          Note:  These values currently only include a subset of arrays which are explicitly tracked.
          The "true" memory usage will be greater.

          Have a nice day.
------------------------------------------------------------
