------------------------------------------------------------
          Invoking FHI-aims ...

          When using FHI-aims, please cite the following reference:

          Volker Blum, Ralf Gehrke, Felix Hanke, Paula Havu,
          Ville Havu, Xinguo Ren, Karsten Reuter, and Matthias Scheffler,
          'Ab Initio Molecular Simulations with Numeric Atom-Centered Orbitals',
          Computer Physics Communications 180, 2175-2196 (2009)

          For any questions about FHI-aims, please visit the aimsclub website
          with its forums and wiki. Contributions to both the forums and the
          wiki are warmly encouraged - they are for you, and everyone is welcome there.

------------------------------------------------------------



  Date     :  20200420, Time     :  204709.665
  Time zero on CPU 1             :   0.112370000000000E+00  s.
  Internal wall clock time zero  :           356647629.665  s.

  FHI-aims created a unique identifier for this run for later identification
  aims_uuid : 496428E2-AE90-4C17-AC82-5AAA987B7CFA

  Build configuration of the current instance of FHI-aims
  -------------------------------------------------------
  FHI-aims version      : 200112
  Commit number         : 23daeca3f
  CMake host system     : Linux-3.10.0-693.21.1.el7.x86_64
  CMake version         : 3.13.3
  Fortran compiler      : /sw/installed/impi/2018.4.274-iccifort-2019.1.144-GCC-8.2.0-2.31.1/bin64/mpiifort (Intel) version 19.0.0.20181018
  Fortran compiler flags: -O3 -ip -fp-model precise
  C compiler            : /sw/installed/impi/2018.4.274-iccifort-2019.1.144-GCC-8.2.0-2.31.1/bin64/mpiicc (Intel) version 19.0.0.20181018
  C compiler flags      : -O3 -ip -fp-model precise
  Architecture          :
  Using MPI
  Using Scalapack
  Using C files
  Using LibXC
  Using SPGlib
  Using i-PI
  Using RLSY
  Linking against: /sw/installed/imkl/2019.1.144-iimpi-2019a/mkl/lib/intel64/libmkl_intel_lp64.so
                   /sw/installed/imkl/2019.1.144-iimpi-2019a/mkl/lib/intel64/libmkl_sequential.so
                   /sw/installed/imkl/2019.1.144-iimpi-2019a/mkl/lib/intel64/libmkl_core.so
                   /sw/installed/imkl/2019.1.144-iimpi-2019a/mkl/lib/intel64/libmkl_blacs_intelmpi_lp64.so
                   /sw/installed/imkl/2019.1.144-iimpi-2019a/mkl/lib/intel64/libmkl_scalapack_lp64.so

  Using       24 parallel tasks.
  Task        0 on host taurusi6390.taurus.hrsk.tu-dresden.de reporting.
  Task        1 on host taurusi6390.taurus.hrsk.tu-dresden.de reporting.
  Task        2 on host taurusi6390.taurus.hrsk.tu-dresden.de reporting.
  Task        3 on host taurusi6390.taurus.hrsk.tu-dresden.de reporting.
  Task        4 on host taurusi6390.taurus.hrsk.tu-dresden.de reporting.
  Task        5 on host taurusi6390.taurus.hrsk.tu-dresden.de reporting.
  Task        6 on host taurusi6390.taurus.hrsk.tu-dresden.de reporting.
  Task        7 on host taurusi6390.taurus.hrsk.tu-dresden.de reporting.
  Task        8 on host taurusi6390.taurus.hrsk.tu-dresden.de reporting.
  Task        9 on host taurusi6390.taurus.hrsk.tu-dresden.de reporting.
  Task       10 on host taurusi6390.taurus.hrsk.tu-dresden.de reporting.
  Task       11 on host taurusi6390.taurus.hrsk.tu-dresden.de reporting.
  Task       12 on host taurusi6390.taurus.hrsk.tu-dresden.de reporting.
  Task       13 on host taurusi6390.taurus.hrsk.tu-dresden.de reporting.
  Task       14 on host taurusi6390.taurus.hrsk.tu-dresden.de reporting.
  Task       15 on host taurusi6390.taurus.hrsk.tu-dresden.de reporting.
  Task       16 on host taurusi6390.taurus.hrsk.tu-dresden.de reporting.
  Task       17 on host taurusi6390.taurus.hrsk.tu-dresden.de reporting.
  Task       18 on host taurusi6390.taurus.hrsk.tu-dresden.de reporting.
  Task       19 on host taurusi6390.taurus.hrsk.tu-dresden.de reporting.
  Task       20 on host taurusi6390.taurus.hrsk.tu-dresden.de reporting.
  Task       21 on host taurusi6390.taurus.hrsk.tu-dresden.de reporting.
  Task       22 on host taurusi6390.taurus.hrsk.tu-dresden.de reporting.
  Task       23 on host taurusi6390.taurus.hrsk.tu-dresden.de reporting.

  Performing system and environment tests:
  | Environment variable OMP_NUM_THREADS correctly set to 1.
  | Maximum stacksize for task 0: unlimited
  | Maximum stacksize for task 1: unlimited
  | Maximum stacksize for task 2: unlimited
  | Maximum stacksize for task 3: unlimited
  | Maximum stacksize for task 4: unlimited
  | Maximum stacksize for task 5: unlimited
  | Maximum stacksize for task 6: unlimited
  | Maximum stacksize for task 7: unlimited
  | Maximum stacksize for task 8: unlimited
  | Maximum stacksize for task 9: unlimited
  | Maximum stacksize for task 10: unlimited
  | Maximum stacksize for task 11: unlimited
  | Maximum stacksize for task 12: unlimited
  | Maximum stacksize for task 13: unlimited
  | Maximum stacksize for task 14: unlimited
  | Maximum stacksize for task 15: unlimited
  | Maximum stacksize for task 16: unlimited
  | Maximum stacksize for task 17: unlimited
  | Maximum stacksize for task 18: unlimited
  | Maximum stacksize for task 19: unlimited
  | Maximum stacksize for task 20: unlimited
  | Maximum stacksize for task 21: unlimited
  | Maximum stacksize for task 22: unlimited
  | Maximum stacksize for task 23: unlimited
  | Current stacksize for task 0: unlimited
  | Current stacksize for task 1: unlimited
  | Current stacksize for task 2: unlimited
  | Current stacksize for task 3: unlimited
  | Current stacksize for task 4: unlimited
  | Current stacksize for task 5: unlimited
  | Current stacksize for task 6: unlimited
  | Current stacksize for task 7: unlimited
  | Current stacksize for task 8: unlimited
  | Current stacksize for task 9: unlimited
  | Current stacksize for task 10: unlimited
  | Current stacksize for task 11: unlimited
  | Current stacksize for task 12: unlimited
  | Current stacksize for task 13: unlimited
  | Current stacksize for task 14: unlimited
  | Current stacksize for task 15: unlimited
  | Current stacksize for task 16: unlimited
  | Current stacksize for task 17: unlimited
  | Current stacksize for task 18: unlimited
  | Current stacksize for task 19: unlimited
  | Current stacksize for task 20: unlimited
  | Current stacksize for task 21: unlimited
  | Current stacksize for task 22: unlimited
  | Current stacksize for task 23: unlimited
  | Checking for scalapack...
  | Testing pdtran()...
  | All pdtran() tests passed.

  Obtaining array dimensions for all initial allocations:
  
  -----------------------------------------------------------------------
  Parsing control.in (first pass over file, find array dimensions only).
  The contents of control.in will be repeated verbatim below
  unless switched off by setting 'verbatim_writeout .false.' .
  in the first line of control.in .
  -----------------------------------------------------------------------
  
  #===============================================================================
  # FHI-aims file: ./control.in
  # Created using the Atomic Simulation Environment (ASE)
  # Thu Apr  2 11:27:09 2020
  #===============================================================================
  xc                                 pbe
  # include_spin_orbit
  # vdw_correction_hirshfeld
  many_body_dispersion
  spin                               none
  k_grid 	 	 21 21 17
  relativistic                       atomic_zora scalar
  energy_tolerance 1e-2
  harmonic_length_scale  0.015
  ### SCF settings
  adjust_scf 	 always 	 3
  # frozen_core_scf 	 .true.
  # charge_mix_param  0.05
  # occupation_type 	 gaussian 	 0.01
  # sc_accuracy_eev   1E-3 	 	 # sum of eigenvalues convergence
  # sc_accuracy_etot  1E-6 	 	 # total energy convergence
  # sc_accuracy_rho   1E-3 	 	 # electron density convergence
  # elsi_restart 	 read_and_write 	 1000
  ### geometry optimisation section
  relax_geometry 	 bfgs 	 1E-2
  relax_unit_cell 	 full
  #===============================================================================
  
  ################################################################################
  #
  #  FHI-aims code project
  # Volker Blum, Fritz Haber Institute Berlin, 2009
  #
  #  Suggested "tight" defaults for Pd atom (to be pasted into control.in file)
  #
  ################################################################################
    species        Pd
  #     global species definitions
      nucleus             46
      mass                106.42
  #
      l_hartree           6
  #
      cut_pot             4.0  2.0  1.0
      basis_dep_cutoff    1e-4
  #
      radial_base         62 7.0
      radial_multiplier   2
      angular_grids specified
        division   0.3627   50
        division   0.7349  110
        division   1.0624  194
        division   1.2496  302
        division   1.6740  434
  #      division   2.0126  590
  #      division   2.0830  770
  #      division   2.7936 1202
  #       outer_grid  974
        outer_grid  434
  ################################################################################
  #
  #  Definition of "minimal" basis
  #
  ################################################################################
  #     valence basis states
      valence      5  s   1.
      valence      4  p   6.
      valence      4  d   9.
  #     ion occupancy
      ion_occ     5  s   0.
      ion_occ     4  p   6.
      ion_occ     4  d   8.
  ################################################################################
  #
  #  Suggested additional basis functions. For production calculations,
  #  uncomment them one after another (the most important basis functions are
  #  listed first).
  #
  #  Constructed for dimers: 2.0 A, 2.275 A, 2.75 A, 3.75 A
  #
  ################################################################################
  #  "First tier" - max. impr. -120.76  meV, min. impr. -5.71 meV
       ionic 5 p auto
       hydro 4 f 8
       hydro 5 g 10
       hydro 3 s 2.6
       hydro 3 d 2.5
  #  "Second tier" - max. impr. -5.00  meV, min. impr. -0.62 meV
  #     hydro 5 f 17.2
  #     hydro 6 h 14
  #     hydro 4 d 4
  #     hydro 5 f 7.6
  #     hydro 3 p 3.3
  #     hydro 4 s 9.4
  #  "Third tier" - max. impr. -0.54  meV, min. impr. -0.14 meV
  #     hydro 4 f 20
  #     hydro 5 g 12.8
  #     hydro 5 d 9.8
  #     hydro 6 h 15.2
  #     hydro 5 s 10
  #     hydro 6 p 9.8
  #  "Fourth tier" - max. impr. -0.15  meV, min. impr. -0.05 meV
  #     hydro 5 f 9.2
  #     hydro 2 s 5.6
  #     hydro 5 f 43.2
  #     hydro 5 d 13.2
  #     hydro 5 g 14
  #     hydro 4 p 4.7
  ################################################################################
  #
  #  FHI-aims code project
  # Volker Blum, Fritz Haber Institute Berlin, 2009
  #
  #  Suggested "tight" defaults for Se atom (to be pasted into control.in file)
  #
  ################################################################################
    species        Se
  #     global species definitions
      nucleus             34
      mass                78.96
  #
      l_hartree           6
  #
      cut_pot             4.0          2.0  1.0
      basis_dep_cutoff    1e-4
  #
      radial_base         55 7.0
      radial_multiplier   2
      angular_grids       specified
        division   0.0830  110
        division   0.1357  194
        division   0.7377  302
        division   0.8610  434
  #      division   0.9640  590
  #      division   1.0773  770
  #      division   2.5539  974
  #      outer_grid  974
        outer_grid  434
  ################################################################################
  #
  #  Definition of "minimal" basis
  #
  ################################################################################
  #     valence basis states
      valence      4  s   2.
      valence      4  p   4.
      valence      3  d  10.
  #     ion occupancy
      ion_occ      4  s   1.
      ion_occ      4  p   3.
      ion_occ      3  d  10.
  ################################################################################
  #
  #  Suggested additional basis functions. For production calculations,
  #  uncomment them one after another (the most important basis functions are
  #  listed first).
  #
  #  Constructed for dimers: 1.85 A, 2.15 A, 2.50 A, 3.00 A, 4.00 A
  #
  ################################################################################
  #  "First tier" - improvements: -336.21 meV to -36.85 meV
       hydro 3 d 4.3
       hydro 2 p 1.6
       hydro 4 f 7.2
       ionic 4 s auto
  #  "Second tier" - improvements: -14.39 meV to -1.49 meV
  #     hydro 5 g 10.4
  #     hydro 4 p 4.5
  #     hydro 4 d 6.2
  #     hydro 4 f 11.2
  #     hydro 1 s 0.65
  #     hydro 6 h 15.2
  #  "Third tier" - improvements: -0.46 meV and below
  #     hydro 5 g 14.4
  #     ionic 4 d auto
  #     hydro 4 f 22.4
  #     hydro 5 f 7.4
  #     hydro 5 p 8
  #     hydro 5 s 9.4
  #  "Fourth tier" - improvements: -0.12 meV and below
  #     hydro 5 d 11.6
  #     hydro 6 h 18
  #     hydro 4 p 4
  #     hydro 5 f 16
  #     hydro 4 s 3.9
  #
  #
  
  -----------------------------------------------------------------------
  Completed first pass over input file control.in .
  -----------------------------------------------------------------------
  
  
  -----------------------------------------------------------------------
  Parsing geometry.in (first pass over file, find array dimensions only).
  The contents of geometry.in will be repeated verbatim below
  unless switched off by setting 'verbatim_writeout .false.' .
  in the first line of geometry.in .
  -----------------------------------------------------------------------
  
  #
  # This is the geometry file that corresponds to the current relaxation step.
  # If you do not want this file to be written, set the "write_restart_geometry" flag to .false.
  #  aims_uuid : 276CC327-C7E9-4F5F-A14F-82927B2B375B
  #
  lattice_vector      5.85491614      0.00000000      0.00000000
  lattice_vector      0.00000000      5.95922820      0.00000000
  lattice_vector      0.00000000      0.00000000      7.43166037
  atom_frac       0.50241988      0.00207594      0.00191382 Pd
  atom_frac       0.00206396      0.00208647      0.50266467 Pd
  atom_frac       0.00215025      0.50244795      0.00196064 Pd
  atom_frac       0.50250592      0.50245821      0.50261764 Pd
  atom_frac       0.61429280      0.12007423      0.40433111 Se
  atom_frac       0.89104458      0.88488891      0.90453830 Se
  atom_frac       0.11390884      0.38454200      0.60074460 Se
  atom_frac       0.39062370      0.62041253      0.10024313 Se
  atom_frac       0.39066900      0.88490891      0.60074485 Se
  atom_frac       0.11394219      0.12007979      0.10026164 Se
  atom_frac       0.89101420      0.62040978      0.40433336 Se
  atom_frac       0.61427387      0.38452449      0.90455540 Se
  #
  # What follows is the current estimated Hessian matrix constructed by the BFGS algorithm.
  # This is NOT the true Hessian matrix of the system.
  # If you do not want this information here, switch it off using the "hessian_to_restart_geometry" keyword.
  #
  trust_radius             0.0122098783
  hessian_block                1       1           5.957533           0.056864          -2.200542           0.056864           6.41152
  hessian_block                1       2          -0.037056           0.472498           0.044189           0.323690           0.23290
  hessian_block                1       3          -0.060712           0.516268           0.032150          -0.051780          -0.14147
  hessian_block                1       4           0.506507           0.196018          -0.086843           0.131576          -0.46721
  hessian_block                1       5          -0.031563          -0.430844          -0.186645          -0.345732           0.32250
  hessian_block                1       6          -1.767824          -0.081515           0.589042           0.415653          -0.43606
  hessian_block                1       7          -0.366432           0.346793           0.275335           0.089136           0.16899
  hessian_block                1       8          -0.210976          -0.518893           0.335607          -0.350245          -1.87970
  hessian_block                1       9          -0.138180           0.018284           0.184205          -0.422825          -0.45621
  hessian_block                1      10          -2.302898           0.886466           1.070529           0.075903          -0.41523
  hessian_block                1      11           0.069423          -0.604724          -0.235446           0.228393           0.21988
  hessian_block                1      12          -0.051911          -0.857216           0.178417          -0.150633          -1.91287
  hessian_block                2       2           6.060808           0.338614           2.314575           0.338614           7.22426
  hessian_block                2       3           0.874362           0.843479           0.465324          -0.446162          -0.48027
  hessian_block                2       4           0.206378           0.637676           0.189128          -0.498579           0.61814
  hessian_block                2       5          -2.094211           0.026695          -0.994674           0.466256          -0.67767
  hessian_block                2       6          -0.525963          -0.098954           0.095297          -0.271368          -0.89215
  hessian_block                2       7          -0.013530          -0.702473          -0.391227          -0.432201          -1.55272
  hessian_block                2       8          -0.230611          -0.552782          -0.305296           0.086148          -0.43452
  hessian_block                2       9          -2.023252           0.387309          -0.949567           0.607384          -0.79677
  hessian_block                2      10           0.500101          -0.139795           0.004915           0.209822           0.92454
  hessian_block                2      11          -0.573027          -0.681729          -0.170123          -0.478836          -3.19783
  hessian_block                2      12          -0.578087          -0.381730          -0.239151          -0.053577           0.67914
  hessian_block                3       3           6.564682          -0.557105           2.406076          -0.557105           6.30511
  hessian_block                3       4           0.346739          -0.280395          -0.038987          -0.274817           0.13593
  hessian_block                3       5          -0.604356           0.164848          -0.308170          -0.230531           0.45325
  hessian_block                3       6          -0.738866           0.471380          -0.516582          -0.027319          -1.77158
  hessian_block                3       7           0.074296           0.129598           0.218066           0.220219          -0.14076
  hessian_block                3       8          -2.167954          -0.207010          -0.848233          -0.705536          -0.30245
  hessian_block                3       9          -0.273628           0.337343           0.133360          -0.005053          -0.20949
  hessian_block                3      10           0.475261           0.519465           0.180318           1.163756          -2.17469
  hessian_block                3      11          -0.419888           0.098065          -0.189421          -0.561713           0.25857
  hessian_block                3      12          -2.504026          -0.178243          -1.052398          -0.381645          -0.28511
  hessian_block                4       4           5.950181           0.184900          -1.951222           0.184900           6.96953
  hessian_block                4       5          -0.492783           0.623027           0.204598           0.095008          -2.24999
  hessian_block                4       6          -0.023437           0.455888           0.133402          -0.249914          -0.45953
  hessian_block                4       7          -2.011594          -0.925891           0.681222          -0.198862          -0.17205
  hessian_block                4       8          -0.284493          -0.199792          -0.172733           0.028566          -0.54238
  hessian_block                4       9          -0.272091           0.652353           0.151291           0.124497          -2.22969
  hessian_block                4      10          -0.420115          -0.433590          -0.174392          -0.126490           0.84745
  hessian_block                4      11          -1.812460          -0.027501           0.878687          -0.848619          -1.32042
  hessian_block                4      12          -0.126921           0.312427          -0.051969           0.437616           0.51725
  hessian_block                5       5           5.380497          -0.380515          -1.215981          -0.380515           6.26768
  hessian_block                5       6           0.256199          -0.422210          -0.401616           0.185539          -0.19774
  hessian_block                5       7          -0.371672           1.129697           0.080199          -0.950835           0.06517
  hessian_block                5       8           0.140134           0.186822           0.428834           0.519439          -0.01741
  hessian_block                5       9          -1.365694          -0.391675           1.705685          -0.417695          -1.86913
  hessian_block                5      10          -0.152118           0.553539           0.469135           0.004652          -0.00554
  hessian_block                5      11           0.513387          -0.921653          -0.013494           1.094698           0.15033
  hessian_block                5      12           0.388091           0.260993          -0.477016          -0.439009          -0.59442
  hessian_block                6       6           5.714379           0.421962           1.840910           0.421962           5.81446
  hessian_block                6       7          -0.064023          -0.140744          -0.053906           0.480269           0.20295
  hessian_block                6       8          -0.125739           0.362305           0.144483           0.116737           0.26463
  hessian_block                6       9           0.095686           0.135016           0.013291           0.301601           0.79864
  hessian_block                6      10          -1.985284          -1.312996          -2.831655          -1.030862          -2.05319
  hessian_block                6      11           0.257397           0.334935          -0.125163          -0.749395           0.55084
  hessian_block                6      12           0.473384           0.146932           0.310479           0.135098          -0.17422
  hessian_block                7       7           5.452484           0.505271           1.113176           0.505271           6.09912
  hessian_block                7       8          -0.028304          -0.116039           0.018485           0.053849          -0.40714
  hessian_block                7       9           0.382478           0.611500          -0.247310          -0.663216          -0.40795
  hessian_block                7      10           0.279034          -0.582621          -0.174259           0.075335          -0.34019
  hessian_block                7      11          -1.877551           0.460162          -1.684218           0.677814          -2.38875
  hessian_block                7      12           0.110725          -0.085998           0.554656          -0.486032           0.52036
  hessian_block                8       8           4.749533           0.079281          -0.922045           0.079281           5.70831
  hessian_block                8       9           0.233793          -0.508873          -0.210051           0.142096           0.18770
  hessian_block                8      10           0.062919          -0.215336           0.261586          -0.593691          -0.54611
  hessian_block                8      11           0.169392          -0.183753          -0.193734           0.555286           1.22482
  hessian_block                8      12          -0.741783           1.079724           1.736566           0.862416          -1.60869
  hessian_block                9       9           5.035371          -0.524666          -0.798650          -0.524666           6.44713
  hessian_block                9      10          -0.039387           0.249133          -0.159463          -0.201438          -0.07547
  hessian_block                9      11          -0.190248           0.869785          -0.093743          -0.725113           0.48452
  hessian_block                9      12           0.121063          -0.261039           0.695138           0.209962          -0.22625
  hessian_block               10      10           5.857771           0.575189           1.688303           0.575189           6.88818
  hessian_block               10      11          -0.168348           0.042803           0.413971           0.370955          -1.38880
  hessian_block               10      12          -0.541025          -0.194979          -0.224516          -0.470410          -0.01391
  hessian_block               11      11           5.512254           0.277357           0.813672           0.277357           7.96985
  hessian_block               11      12           0.085579           0.159172          -0.473374           0.336255          -0.91599
  hessian_block               12      12           4.930822          -0.000041          -0.956831          -0.000041           5.66174
  hessian_block_lv             1       1          23.514019          -3.500986           4.910272          -3.500986          23.88594
  hessian_block_lv_atom        1       1           0.260139           0.416386           0.066753          -0.403097          -0.59100
  hessian_block_lv_atom        1       2          -0.540911          -0.914347          -0.230205           0.163863          -0.23504
  hessian_block_lv_atom        1       3          -0.595229          -1.034725          -0.258280           0.292819           0.54324
  hessian_block_lv_atom        1       4           0.096669           0.104340          -0.003052           0.801027           0.82478
  hessian_block_lv_atom        1       5           0.298727           0.474837           0.379966           0.134131           0.01509
  hessian_block_lv_atom        1       6           0.137837          -0.068400          -0.283987          -0.499864          -0.28761
  hessian_block_lv_atom        1       7          -0.578672          -0.839134           0.108057          -0.727825          -1.00701
  hessian_block_lv_atom        1       8          -0.065324           0.219004          -0.244055           0.035439           0.18922
  hessian_block_lv_atom        1       9           0.105566           0.198752          -0.209810          -0.620155          -0.45508
  hessian_block_lv_atom        1      10          -0.246841          -0.003923           0.310228           0.538341           0.13355
  hessian_block_lv_atom        1      11           0.623102           0.984298          -0.043054           0.246764           0.85873
  hessian_block_lv_atom        1      12           0.504939           0.462914           0.407438           0.038560           0.01112
  symmetry_n_params 39 3 36
  symmetry_params a1 b2 c3 x0 x1 x2 x3 x4 x5 x6 x7 x8 x9 x10 x11 x12 x13 x14 x15 x16 x17 x18 x19 x20 x21 x22 x23 x24 x25 x26 x27 x28 x
  symmetry_lv a1 , 0 , 0
  symmetry_lv 0 , b2 , 0
  symmetry_lv 0 , 0 , c3
  symmetry_frac x0 , x1 , x2
  symmetry_frac x3 , x4 , x5
  symmetry_frac x6 , x7 , x8
  symmetry_frac x9 , x10 , x11
  symmetry_frac x12 , x13 , x14
  symmetry_frac x15 , x16 , x17
  symmetry_frac x18 , x19 , x20
  symmetry_frac x21 , x22 , x23
  symmetry_frac x24 , x25 , x26
  symmetry_frac x27 , x28 , x29
  symmetry_frac x30 , x31 , x32
  symmetry_frac x33 , x34 , x35
  
  -----------------------------------------------------------------------
  Completed first pass over input file geometry.in .
  -----------------------------------------------------------------------
  

  Basic array size parameters:
  | Number of species                 :        2
  | Number of atoms                   :       12
  | Number of lattice vectors         :        3
  | Max. basis fn. angular momentum   :        4
  | Max. atomic/ionic basis occupied n:        5
  | Max. number of basis fn. types    :        3
  | Max. radial fns per species/type  :       10
  | Max. logarithmic grid size        :     1444
  | Max. radial integration grid size :      125
  | Max. angular integration grid size:      434
  | Max. angular grid division number :        8
  | Radial grid for Hartree potential :     1444
  | Number of spin channels           :        1

------------------------------------------------------------
          Reading file control.in.
------------------------------------------------------------
  XC: Using PBE gradient-corrected functionals.
  Using libMBD for calculating MBD and TS energies
  Spin treatment: No spin polarisation.
  Found k-point grid:        21        21        17
  Scalar relativistic treatment of kinetic energy: on-site free-atom approximation to ZORA.
  Max energy increase before discarding BFGS move:   0.100000E-01 eV
  Assuming qualitatively harmonic for steps shorter than   0.150000E-01 A.
  S.C.F. convergence parameters will be adjusted in iteration number     3 of each new s.c.f. cycle.
  Geometry relaxation: Modified BFGS - TRM (trust radius method) for lattice optimization.
  Convergence accuracy for geometry relaxation: Maximum force <   0.100000E-01 eV/A.
 
  Reading configuration options for species Pd                  .
  | Found nuclear charge :  46.0000
  | Found atomic mass :    106.420000000000      amu
  | Found l_max for Hartree potential  :   6
  | Found cutoff potl. onset [A], width [A], scale factor :    4.00000    2.00000    1.00000
  | Threshold for basis-dependent cutoff potential is   0.100000E-03
  | Found data for basic radial integration grid :    62 points, outermost radius =    7.000 A
  | Found multiplier for basic radial grid :   2
  | Found angular grid specification: user-specified.
  | Specified grid contains     6 separate shells.
  | Check grid settings after all constraints further below.
  | Found free-atom valence shell :  5 s   1.000
  | Found free-atom valence shell :  4 p   6.000
  | Found free-atom valence shell :  4 d   9.000
  | Found free-ion valence shell :  5 s   0.000
  | Found free-ion valence shell :  4 p   6.000
  | Found free-ion valence shell :  4 d   8.000
  | Found ionic basis function :  5 p , default cutoff radius.
  | Found hydrogenic basis function :  4 f   8.000
  | Found hydrogenic basis function :  5 g  10.000
  | Found hydrogenic basis function :  3 s   2.600
  | Found hydrogenic basis function :  3 d   2.500
  Species Pd                  : Missing cutoff potential type.
  Defaulting to exp(1/x)/(1-x)^2 type cutoff potential.
  Species Pd: No 'logarithmic' tag. Using default grid for free atom:
  | Default logarithmic grid data [bohr] : 0.1000E-03 0.1000E+03 0.1012E+01
  | Will include ionic basis functions of  2.0-fold positive Pd                   ion.
  Species Pd: On-site basis accuracy parameter (for Gram-Schmidt orthonormalisation) not specified.
  Using default value basis_acc =  0.1000000E-03.
  Species Pd                  : Using default innermost maximum threshold i_radial=  2 for radial functions.
  Species Pd                  : Default cutoff onset for free atom density etc. : 0.40000000E+01 AA.
  Species Pd                  : Basic radial grid will be enhanced according to radial_multiplier =   2, to contain   125 grid points.
 
  Reading configuration options for species Se                  .
  | Found nuclear charge :  34.0000
  | Found atomic mass :    78.9600000000000      amu
  | Found l_max for Hartree potential  :   6
  | Found cutoff potl. onset [A], width [A], scale factor :    4.00000    2.00000    1.00000
  | Threshold for basis-dependent cutoff potential is   0.100000E-03
  | Found data for basic radial integration grid :    55 points, outermost radius =    7.000 A
  | Found multiplier for basic radial grid :   2
  | Found angular grid specification: user-specified.
  | Specified grid contains     5 separate shells.
  | Check grid settings after all constraints further below.
  | Found free-atom valence shell :  4 s   2.000
  | Found free-atom valence shell :  4 p   4.000
  | Found free-atom valence shell :  3 d  10.000
  | Found free-ion valence shell :  4 s   1.000
  | Found free-ion valence shell :  4 p   3.000
  | Found free-ion valence shell :  3 d  10.000
  | Found hydrogenic basis function :  3 d   4.300
  | Found hydrogenic basis function :  2 p   1.600
  | Found hydrogenic basis function :  4 f   7.200
  | Found ionic basis function :  4 s , default cutoff radius.
  Species Se                  : Missing cutoff potential type.
  Defaulting to exp(1/x)/(1-x)^2 type cutoff potential.
  Species Se: No 'logarithmic' tag. Using default grid for free atom:
  | Default logarithmic grid data [bohr] : 0.1000E-03 0.1000E+03 0.1012E+01
  | Will include ionic basis functions of  2.0-fold positive Se                   ion.
  Species Se: On-site basis accuracy parameter (for Gram-Schmidt orthonormalisation) not specified.
  Using default value basis_acc =  0.1000000E-03.
  Species Se                  : Using default innermost maximum threshold i_radial=  2 for radial functions.
  Species Se                  : Default cutoff onset for free atom density etc. : 0.40000000E+01 AA.
  Species Se                  : Basic radial grid will be enhanced according to radial_multiplier =   2, to contain   111 grid points.
 
  Finished reading input file 'control.in'. Consistency checks are next.
 
  MPI_IN_PLACE appears to work with this MPI implementation.
  | Keeping use_mpi_in_place .true. (see manual).
  Target number of points in a grid batch is not set. Defaulting to  100
  Method for grid partitioning is not set. Defaulting to parallel hash+maxmin partitioning.
  Batch size limit is not set. Defaulting to    200
  By default, will store active basis functions for each batch.
  If in need of memory, prune_basis_once .false. can be used to disable this option.
  communication_type for Hartree potential was not specified.
  Defaulting to calc_hartree .
  Defaulting to Pulay charge density mixer.
  Pulay mixer: Number of relevant iterations not set.
  Defaulting to    8 iterations.
  Pulay mixer: Number of initial linear mixing iterations not set.
  Defaulting to    0 iterations.
  Work space size for distributed Hartree potential not set.
  Defaulting to   0.200000E+03 MB.
  Mixing parameter for charge density mixing has not been set.
  Using default: charge_mix_param =     0.0500.
  The mixing parameter will be adjusted in iteration number     3 of each s.c.f. cycle (i.e., each geometry step).
  Algorithm-dependent basis array size parameters:
  | n_max_pulay                         :        8
  Maximum number of self-consistency iterations not provided.
  Presetting  1000 iterations.
  Presetting      1001 iterations before the initial mixing cycle
  is restarted anyway using the sc_init_iter criterion / keyword.
  Presetting a factor      1.000 between actual scf density residual
  and density convergence criterion sc_accuracy_rho below which sc_init_iter
  takes no effect.
 * No s.c.f. convergence criteria (sc_accuracy_*) were provided in control.in.
 * The run will proceed with a reasonable default guess, but please check whether.
 * the s.c.f. cycles seem to take too much or too little time.
  No maximum number of relaxation steps, defaulting to     1000
  Using explicit Hessian from geometry.in.
  Maximum energy tolerance by which TRM/BFGS trajectory may increase over multiple steps:   0.300000E-02
  No trust radius initializer. Defaulting to   0.200000E+00 A.
  Unit cell relaxation: Unit cell will be relaxed fully.
  Unit cell relaxation: Analytical stress will be used.
  Analytical stress will be computed.
  Analytical stress calculation: Only the upper triangle is calculated.
                                 Final output is symmetrized.
  Analytical stress calculation: scf convergence accuracy of stress not set.
                                 Analytical stress self-consistency will not be checked explicitly.
                                 Be sure to set other criteria like sc_accuracy_rho tight enough.
 * Notice: The s.c.f. convergence criterion sc_accuracy_rho was not provided.
 * We used to stop in this case, and ask the user to provide reasonable
 * scf convergence criteria. However, this led some users to employ criteria
 * that led to extremely long run times, e.g., for simple relaxation.
 * We now preset a default value for sc_accuracy_rho if it is not set.
 * You may still wish to check if this setting is too tight or too loose for your needs.
 * Based on n_atoms, FHI-aims chose sc_accuracy_rho =  0.141421E-05 .
  Force calculation: scf convergence accuracy of forces not set.
  Defaulting to 'sc_accuracy_forces not_checked'.
  Handling of forces: Unphysical translation and rotation will be removed from forces.
  No accuracy limit for integral partition fn. given. Defaulting to  0.1000E-14.
  No threshold value for u(r) in integrations given. Defaulting to  0.1000E-05.
  No occupation type (smearing scheme) given. Defaulting to Gaussian broadening, width =  0.1000E-01 eV.
  The width will be adjusted in iteration number     3 of each s.c.f. cycle (i.e., each geometry step).
  S.C.F. convergence parameters will be adjusted in iteration number     3 of the first full s.c.f. cycle only.
  No accuracy for occupation numbers given. Defaulting to  0.1000E-12.
  No threshold value for occupation numbers given. Defaulting to  0.0000E+00.
  No accuracy for fermi level given. Defaulting to  0.1000E-19.
  Maximum # of iterations to find E_F not set. Defaulting to  200.
  Preferred method for the eigenvalue solver ('KS_method') not specified in 'control.in'.
  Defaulting to serial version, LAPACK (via ELSI), since more k-points than CPUs available.
  Will not use alltoall communication since running on < 1024 CPUs.
  Threshold for basis singularities not set.
  Default threshold for basis singularities:  0.1000E-04
  partition_type (choice of integration weights) for integrals was not specified.
  | Using a version of the partition function of Stratmann and coworkers ('stratmann_sparse').
  | At each grid point, the set of atoms used to build the partition table is smoothly restricted to
  | only those atoms whose free-atom density would be non-zero at that grid point.
  Partitioning for Hartree potential was not defined. Using partition_type for integrals.
  | Adjusted default value of keyword multip_moments_threshold to:       0.10000000E-11
  | This value may affect high angular momentum components of the Hartree potential in periodic systems.
  Angular momentum expansion for Kerker preconditioner not set explicitly.
  | Using default value of   0
  No explicit requirement for turning off preconditioner.
  | By default, it will be turned off when the charge convergence reaches
  | sc_accuracy_rho  =   0.141421E-05
  No special mixing parameter while Kerker preconditioner is on.
  Using default: charge_mix_param =     0.0500.
  No q(lm)/r^(l+1) cutoff set for long-range Hartree potential.
  | Using default value of  0.100000E-09 .
  | Verify using the multipole_threshold keyword.
  Defaulting to new monopole extrapolation.
  Density update method: automatic selection selected.
  Using density matrix based charge density update.
  Using density matrix based charge density update.
  Using packed matrix style: index .
  Geometry relaxation: A file "geometry.in.next_step" is written out by default after each step.
  | This file contains the geometry of the current relaxation step as well as
  | the current Hessian matrix needed to restart the relaxation algorithm.
  | If you do not want part or all of this information, use the keywords
  | "write_restart_geometry" or "hessian_to_restart_geometry" to switch the output off.
  Defaulting to use time-reversal symmetry for k-point grid.
  Charge integration errors on the 3D integration grid will be compensated
  by explicit normalization and distribution of residual charges.
  Use the "compensate_multipole_errors" flag to change this behaviour.
------------------------------------------------------------


------------------------------------------------------------
          Reading geometry description geometry.in.
------------------------------------------------------------
  Input structure read successfully.
  The structure contains       12 atoms,  and a total of        456.000 electrons.

  Input geometry:
  | Unit cell:
  |        5.85491614        0.00000000        0.00000000
  |        0.00000000        5.95922820        0.00000000
  |        0.00000000        0.00000000        7.43166037
  | Atomic structure:
  |       Atom                x [A]            y [A]            z [A]
  |    1: Species Pd            2.94162626        0.01237100        0.01422286
  |    2: Species Pd            0.01208431        0.01243375        3.73563311
  |    3: Species Pd            0.01258953        2.99420199        0.01457081
  |    4: Species Pd            2.94213002        2.99426313        3.73528360
  |    5: Species Se            3.59663283        0.71554974        3.00485149
  |    6: Species Se            5.21699129        5.27325495        6.72222144
  |    7: Species Se            0.66692671        2.29157353        4.46452984
  |    8: Species Se            2.28706901        3.69717984        0.74497290
  |    9: Species Se            2.28733423        5.27337413        4.46453169
  |   10: Species Se            0.66712197        0.71558287        0.74511046
  |   11: Species Se            5.21681342        3.69716346        3.00486821
  |   12: Species Se            3.59652200        2.29146918        6.72234852

  Lattice parameters for 3D lattice (in Angstroms) :     5.854916    5.959228    7.431660
  Angle(s) between unit vectors (in degrees)       :    90.000000   90.000000   90.000000

  | The smallest distance between any two atoms is         2.40483278 AA.
  | The first atom of this pair is atom number                      6 .
  | The second atom of this pair is atom number                    10 .
  | Wigner-Seitz cell of the first atom image           0     0     0 .
  | (The Wigner-Seitz cell of the second atom is 0 0 0  by definition.)

  Symmetry information by spglib:
  | Precision set to  0.1E-04
  | Number of Operations  : 1
  | Space group           : 1
  | International         : P1       8
  | Schoenflies           : C1^1

  Quantities derived from the lattice vectors:
  | Reciprocal lattice vector 1:  1.073147  0.000000  0.000000
  | Reciprocal lattice vector 2:  0.000000  1.054362  0.000000
  | Reciprocal lattice vector 3:  0.000000  0.000000  0.845462
  | Unit cell volume                               :   0.259296E+03  A^3

  Range separation radius for Ewald summation (hartree_convergence_parameter):      3.99888746 bohr.

  Fractional coordinates:
                         L1                L2                L3
       atom_frac         0.50241988        0.00207594        0.00191382  Pd
       atom_frac         0.00206396        0.00208647        0.50266467  Pd
       atom_frac         0.00215025        0.50244795        0.00196064  Pd
       atom_frac         0.50250592        0.50245821        0.50261764  Pd
       atom_frac         0.61429280        0.12007423        0.40433111  Se
       atom_frac         0.89104458        0.88488891        0.90453830  Se
       atom_frac         0.11390884        0.38454200        0.60074460  Se
       atom_frac         0.39062370        0.62041253        0.10024313  Se
       atom_frac         0.39066900        0.88490891        0.60074485  Se
       atom_frac         0.11394219        0.12007979        0.10026164  Se
       atom_frac         0.89101420        0.62040978        0.40433336  Se
       atom_frac         0.61427387        0.38452449        0.90455540  Se

  Number of empty states per atom not set in control.in - providing a guess from actual geometry.
  | Total number of empty states used during s.c.f. cycle:       66
  If you use a very high smearing, use empty_states (per atom!) in control.in to increase this value.

  Structure-dependent array size parameters: 
  | Maximum number of distinct radial functions  :       27
  | Maximum number of basis functions            :      468
  | Number of Kohn-Sham states (occupied + empty):      294
------------------------------------------------------------

------------------------------------------------------------
          Preparing all fixed parts of the calculation.
------------------------------------------------------------
  Determining machine precision:
    2.225073858507201E-308
  Setting up grids for atomic and cluster calculations.

  Creating wave function, potential, and density for free atoms.

  Species: Pd

  List of occupied orbitals and eigenvalues:
    n    l              occ      energy [Ha]    energy [eV]
    1    0           2.0000      -913.269104    -24851.3168
    2    0           2.0000      -130.434372     -3549.2998
    3    0           2.0000       -23.521804      -640.0609
    4    0           2.0000        -3.256918       -88.6253
    5    0           1.0000        -0.157260        -4.2793
    2    1           6.0000      -116.910756     -3181.3035
    3    1           6.0000       -19.103344      -519.8284
    4    1           6.0000        -1.998052       -54.3697
    3    2          10.0000       -12.098182      -329.2083
    4    2           9.0000        -0.243389        -6.6230


  Species: Se

  List of occupied orbitals and eigenvalues:
    n    l              occ      energy [Ha]    energy [eV]
    1    0           2.0000      -466.337810    -12689.6975
    2    0           2.0000       -59.202598     -1610.9847
    3    0           2.0000        -7.847116      -213.5309
    4    0           2.0000        -0.634372       -17.2621
    2    1           6.0000       -52.061107     -1416.6548
    3    1           6.0000        -5.620941      -152.9536
    4    1           4.0000        -0.238469        -6.4891
    3    2          10.0000        -1.951949       -53.1152

  Creating fixed part of basis set: Ionic, confined, hydrogenic.
 
  Pd                   ion:

  List of free ionic orbitals and eigenvalues:
    n    l      energy [Ha]    energy [eV]
    1    0      -914.099884    -24873.9234
    2    0      -131.248265     -3571.4470
    3    0       -24.332473      -662.1203
    4    0        -4.059276      -110.4585
    2    1      -117.724296     -3203.4411
    3    1       -19.913908      -541.8850
    4    1        -2.795328       -76.0648
    3    2       -12.908733      -351.2645
    4    2        -1.004248       -27.3270


  List of ionic basis orbitals and eigenvalues:
    n    l      energy [Ha]    energy [eV]    outer radius [A]
    5    1        -0.516938       -14.0666       5.427025

 
  Pd                   hydrogenic:
 
  List of hydrogenic basis orbitals: 
    n    l      effective z      eigenvalue [eV]  inner max. [A]     outer max. [A]     outer radius [A]   
    4    3         8.000000       -54.4226           1.054686           1.054686           4.629581
    5    4        10.000000       -54.4226           1.330451           1.330451           5.043202
    3    0         2.600000        -9.8948           0.150992           2.606197           5.493778
    3    2         2.500000        -9.3396           1.873517           1.873517           5.493778
 
 
  Se                   ion:

  List of free ionic orbitals and eigenvalues:
    n    l      energy [Ha]    energy [eV]
    1    0      -467.261007    -12714.8189
    2    0       -60.104893     -1635.5374
    3    0        -8.743714      -237.9286
    4    0        -1.414053       -38.4783
    2    1       -52.964156     -1441.2280
    3    1        -6.516916      -177.3343
    4    1        -0.961869       -26.1738
    3    2        -2.844511       -77.4031


  List of ionic basis orbitals and eigenvalues:
    n    l      energy [Ha]    energy [eV]    outer radius [A]
    4    0        -1.414046       -38.4782       4.083166

 
  Se                   hydrogenic:
 
  List of hydrogenic basis orbitals: 
    n    l      effective z      eigenvalue [eV]  inner max. [A]     outer max. [A]     outer radius [A]   
    3    2         4.300000       -27.9518           1.103845           1.103845           5.278265
    2    1         1.600000        -8.6828           1.326010           1.326010           5.475439
    4    3         7.200000       -44.0822           1.173422           1.173422           4.965294
 

  Adding cutoff potential to free-atom effective potential.
  Creating atomic-like basis functions for current effective potential.

  Species Pd                  :

  List of atomic basis orbitals and eigenvalues:
    n    l      energy [Ha]    energy [eV]    outer radius [A]
    1    0      -913.269104    -24851.3168       0.223280
    2    0      -130.434372     -3549.2998       0.615909
    3    0       -23.521804      -640.0609       1.414312
    4    0        -3.256918       -88.6253       3.581357
    5    0        -0.157260        -4.2793       5.427025
    2    1      -116.910756     -3181.3035       0.631154
    3    1       -19.103344      -519.8284       1.540671
    4    1        -1.998052       -54.3697       4.408641
    3    2       -12.098182      -329.2083       1.806051
    4    2        -0.243389        -6.6230       5.361084


  Species Se                  :

  List of atomic basis orbitals and eigenvalues:
    n    l      energy [Ha]    energy [eV]    outer radius [A]
    1    0      -466.337810    -12689.6975       0.309561
    2    0       -59.202598     -1610.9847       0.885812
    3    0        -7.847116      -213.5309       2.355489
    4    0        -0.634372       -17.2621       5.214131
    2    1       -52.061107     -1416.6548       0.907737
    3    1        -5.620941      -152.9536       2.694529
    4    1        -0.238469        -6.4891       5.408909
    3    2        -1.951949       -53.1152       4.083166

  Assembling full basis from fixed parts.
  | Species Pd :   atomic orbital   1 s accepted.
  | Species Pd :   atomic orbital   2 s accepted.
  | Species Pd :   atomic orbital   3 s accepted.
  | Species Pd :   atomic orbital   4 s accepted.
  | Species Pd :   atomic orbital   5 s accepted.
  | Species Pd :    hydro orbital   3 s accepted.
  | Species Pd :   atomic orbital   2 p accepted.
  | Species Pd :   atomic orbital   3 p accepted.
  | Species Pd :   atomic orbital   4 p accepted.
  | Species Pd :    ionic orbital   5 p accepted.
  | Species Pd :   atomic orbital   3 d accepted.
  | Species Pd :   atomic orbital   4 d accepted.
  | Species Pd :    hydro orbital   3 d accepted.
  | Species Pd :    hydro orbital   4 f accepted.
  | Species Pd :    hydro orbital   5 g accepted.
  | Species Se :   atomic orbital   1 s accepted.
  | Species Se :   atomic orbital   2 s accepted.
  | Species Se :   atomic orbital   3 s accepted.
  | Species Se :    ionic orbital   4 s accepted.
  | Species Se :   atomic orbital   4 s accepted.
  | Species Se :   atomic orbital   2 p accepted.
  | Species Se :   atomic orbital   3 p accepted.
  | Species Se :   atomic orbital   4 p accepted.
  | Species Se :    hydro orbital   2 p accepted.
  | Species Se :   atomic orbital   3 d accepted.
  | Species Se :    hydro orbital   3 d accepted.
  | Species Se :    hydro orbital   4 f accepted.
 
  Basis size parameters after reduction:
  | Total number of radial functions:       27
  | Total number of basis functions :      468
 
  Per-task memory consumption for arrays in subroutine allocate_ext:
  |           9.993344MB.
  Testing on-site integration grid accuracy.
  |  Species  Function  <phi|h_atom|phi> (log., in eV)  <phi|h_atom|phi> (rad., in eV)
           1        1             -24851.3167505682             -24851.3148165635
           1        2              -3549.2998457785              -3549.2998098031
           1        3               -640.0608571327               -640.0608534886
           1        4                -88.6252603131                -88.6252593316
           1        5                 -4.2849374515                 -4.2849400622
           1        6                  4.9432123540                  4.9432188418
           1        7              -3181.3035399559              -3181.3035364574
           1        8               -519.8284281886               -519.8284264063
           1        9                -54.3697495804                -54.3697489261
           1       10                  0.8628369484                  0.8628370487
           1       11               -329.2082917394               -329.2082912864
           1       12                 -6.6230267036                 -6.6230265076
           1       13                  5.4924295291                  5.4924115607
           1       14                 25.0740861942                 25.0740861175
           1       15                 38.8271273823                 38.8271278029
           2       16             -12689.6974611609             -12689.6967666984
           2       17              -1610.9846578580              -1610.9846472470
           2       18               -213.5308789869               -213.5308777267
           2       19                -17.0464428502                -17.0464426496
           2       20                  6.7356859379                  6.7356842047
           2       21              -1416.6548010133              -1416.6548002108
           2       22               -152.9535734377               -152.9535727493
           2       23                 -6.4896265677                 -6.4896303794
           2       24                  5.2703037283                  5.2701679583
           2       25                -53.1152220964                -53.1152219035
           2       26                  7.6186674138                  7.6186665630
           2       27                 23.1072799052                 23.1072803137

  Preparing densities etc. for the partition functions (integrals / Hartree potential).

  Preparations completed.
  max(cpu_time)          :      0.549 s.
  Wall clock time (cpu1) :     12.799 s.
------------------------------------------------------------

------------------------------------------------------------
          Begin self-consistency loop: Initialization.

          Date     :  20200420, Time     :  204723.425
------------------------------------------------------------

  Initializing index lists of integration centers etc. from given atomic structure:
  Mapping all atomic coordinates to central unit cell.

  Initializing the k-points
  Using symmetry for reducing the k-points
  | k-points reduced from:     7497 to     3749
  | Number of k-points                             :      3749
  The eigenvectors in the calculations are COMPLEX.
  | K-points in task   0:       156
  | K-points in task   1:       157
  | K-points in task   2:       157
  | K-points in task   3:       157
  | K-points in task   4:       157
  | K-points in task   5:       157
  | K-points in task   6:       156
  | K-points in task   7:       156
  | K-points in task   8:       156
  | K-points in task   9:       156
  | K-points in task  10:       156
  | K-points in task  11:       156
  | K-points in task  12:       156
  | K-points in task  13:       156
  | K-points in task  14:       156
  | K-points in task  15:       156
  | K-points in task  16:       156
  | K-points in task  17:       156
  | K-points in task  18:       156
  | K-points in task  19:       156
  | K-points in task  20:       156
  | K-points in task  21:       156
  | K-points in task  22:       156
  | K-points in task  23:       156
  | Number of basis functions in the Hamiltonian integrals :      5560
  | Number of basis functions in a single unit cell        :       468
  | Number of centers in hartree potential         :      1325
  | Number of centers in hartree multipole         :       769
  | Number of centers in electron density summation:       596
  | Number of centers in basis integrals           :       640
  | Number of centers in integrals                 :       236
  | Number of centers in hamiltonian               :       596
  | Consuming       5037 KiB for k_phase.
  | Number of super-cells (origin) [n_cells]                     :         567
  | Number of super-cells (after PM_index) [n_cells]             :          86
  | Number of super-cells in hamiltonian [n_cells_in_hamiltonian]:          86
  | Size of matrix packed + index [n_hamiltonian_matrix_size] :     1293650

  Initializing relaxation algorithms.
  | Estimated reciprocal-space cutoff momentum G_max:         2.42890408 bohr^-1 .
  | Reciprocal lattice points for long-range Hartree potential:     418
  Partitioning the integration grid into batches with parallel hashing+maxmin method.
  | Number of batches:     4179
  | Maximal batch size:     110
  | Minimal batch size:      49
  | Average batch size:      91.921
  | Standard deviation of batch sizes:      11.327

  Integration load balanced across    24 MPI tasks.
  Work distribution over tasks is as follows:
  Task     0 has      16031 integration points.
  Task     1 has      15997 integration points.
  Task     2 has      15992 integration points.
  Task     3 has      16011 integration points.
  Task     4 has      15972 integration points.
  Task     5 has      15980 integration points.
  Task     6 has      15972 integration points.
  Task     7 has      15991 integration points.
  Task     8 has      16015 integration points.
  Task     9 has      16043 integration points.
  Task    10 has      16012 integration points.
  Task    11 has      15998 integration points.
  Task    12 has      16006 integration points.
  Task    13 has      16031 integration points.
  Task    14 has      16017 integration points.
  Task    15 has      15998 integration points.
  Task    16 has      15992 integration points.
  Task    17 has      15972 integration points.
  Task    18 has      16015 integration points.
  Task    19 has      16008 integration points.
  Task    20 has      16045 integration points.
  Task    21 has      16042 integration points.
  Task    22 has      16017 integration points.
  Task    23 has      15979 integration points.
  Initializing partition tables, free-atom densities, potentials, etc. across the integration grid (initialize_grid_storage).
  | initialize_grid_storage: Actual outermost partition radius vs. multipole_radius_free
  | (-- VB: in principle, multipole_radius_free should be larger, hence this output)
  | Species        1: Confinement radius =              6.000000000000000 AA, multipole_radius_free =              6.058219618167466 AA.
  | Species        1: outer_partition_radius set to              6.058219618167466 AA .
  | Species        2: Confinement radius =              6.000000000000000 AA, multipole_radius_free =              6.037996416842453 AA.
  | Species        2: outer_partition_radius set to              6.037996416842453 AA .
  | The sparse table of interatomic distances needs       2897.83 kbyte instead of      3276.80 kbyte of memory.
  | Net number of integration points:   384136
  | of which are non-zero points    :   322121
  | Numerical average free-atom electrostatic potential    :    -17.07866926 eV
  Renormalizing the initial density to the exact electron count on the 3D integration grid.
  | Initial density: Formal number of electrons (from input files) :     456.0000000000
  | Integrated number of electrons on 3D grid     :     456.0000566383
  | Charge integration error                      :       0.0000566383
  | Normalization factor for density and gradient :       0.9999998758
  Renormalizing the free-atom superposition density to the exact electron count on the 3D integration grid.
  | Formal number of electrons (from input files) :     456.0000000000
  | Integrated number of electrons on 3D grid     :     456.0000566383
  | Charge integration error                      :       0.0000566383
  | Normalization factor for density and gradient :       0.9999998758
  Obtaining max. number of non-zero basis functions in each batch (get_n_compute_maxes).
  | Maximal number of non-zero basis functions:     1011 in task     0
  | Maximal number of non-zero basis functions:     1030 in task     1
  | Maximal number of non-zero basis functions:     1028 in task     2
  | Maximal number of non-zero basis functions:     1003 in task     3
  | Maximal number of non-zero basis functions:     1029 in task     4
  | Maximal number of non-zero basis functions:     1038 in task     5
  | Maximal number of non-zero basis functions:     1034 in task     6
  | Maximal number of non-zero basis functions:     1014 in task     7
  | Maximal number of non-zero basis functions:     1012 in task     8
  | Maximal number of non-zero basis functions:     1004 in task     9
  | Maximal number of non-zero basis functions:     1018 in task    10
  | Maximal number of non-zero basis functions:     1042 in task    11
  | Maximal number of non-zero basis functions:     1029 in task    12
  | Maximal number of non-zero basis functions:     1026 in task    13
  | Maximal number of non-zero basis functions:     1032 in task    14
  | Maximal number of non-zero basis functions:     1020 in task    15
  | Maximal number of non-zero basis functions:     1018 in task    16
  | Maximal number of non-zero basis functions:     1024 in task    17
  | Maximal number of non-zero basis functions:     1029 in task    18
  | Maximal number of non-zero basis functions:     1025 in task    19
  | Maximal number of non-zero basis functions:     1035 in task    20
  | Maximal number of non-zero basis functions:     1019 in task    21
  | Maximal number of non-zero basis functions:     1040 in task    22
  | Maximal number of non-zero basis functions:     1020 in task    23
  Allocating      327.520 MB for KS_eigenvector_complex
  Integrating Hamiltonian matrix: batch-based integration.
  Time summed over all CPUs for integration: real work      110.640 s, elapsed     1201.545 s => Consider using load balancing!
  Integrating overlap matrix.
  Time summed over all CPUs for integration: real work       77.553 s, elapsed      808.434 s
  Decreasing sparse matrix size:
  | Tolerance:  0.1000E-12
  Hamiltonian matrix
  | Array has  1119497 nonzero elements out of  1293650 elements
  | Sparsity factor is 0.135
  Overlap matrix
  | Array has  1033106 nonzero elements out of  1293650 elements
  | Sparsity factor is 0.201
  New size of hamiltonian matrix:     1119566

  Updating Kohn-Sham eigenvalues and eigenvectors using ELSI and the (modified) LAPACK eigensolver.
  Singularity check in k-point 24, task 0 (analysis for other k-points/tasks may follow below):
  Overlap matrix is not singular
  | Lowest and highest eigenvalues :  0.5530E-03,  0.7254E+01
  Finished singularity check of overlap matrix
  | Time :     0.101 s
  Starting LAPACK eigensolver
  Finished Cholesky decomposition
  | Time :     0.033 s
  Finished transformation to standard eigenproblem
  | Time :     0.021 s
  Finished solving standard eigenproblem
  | Time :     0.074 s
  Finished back-transformation of eigenvectors
  | Time :     0.009 s

  Obtaining occupation numbers and chemical potential using ELSI.
  | Chemical potential (Fermi level):    -4.63972237 eV
  Writing Kohn-Sham eigenvalues.
  K-point:       1 at    0.000000    0.000000    0.000000 (in units of recip. lattice)

  State    Occupation    Eigenvalue [Ha]    Eigenvalue [eV]
      1       2.00000        -913.279499       -24851.59960
      2       2.00000        -913.279488       -24851.59930
      3       2.00000        -913.279487       -24851.59928
      4       2.00000        -913.279412       -24851.59722
      5       2.00000        -466.350323       -12690.03796
      6       2.00000        -466.350286       -12690.03696
      7       2.00000        -466.350249       -12690.03593
      8       2.00000        -466.350244       -12690.03581
      9       2.00000        -466.350244       -12690.03580
     10       2.00000        -466.350231       -12690.03545
     11       2.00000        -466.350218       -12690.03510
     12       2.00000        -466.350199       -12690.03458
     13       2.00000        -130.445083        -3549.59131
     14       2.00000        -130.445072        -3549.59101
     15       2.00000        -130.445071        -3549.59099
     16       2.00000        -130.444995        -3549.58891
     17       2.00000        -116.921491        -3181.59565
     18       2.00000        -116.921482        -3181.59541
     19       2.00000        -116.921480        -3181.59535
     20       2.00000        -116.921479        -3181.59533
     21       2.00000        -116.921472        -3181.59512
     22       2.00000        -116.921470        -3181.59509
     23       2.00000        -116.921429        -3181.59395
     24       2.00000        -116.921418        -3181.59365
     25       2.00000        -116.921417        -3181.59363
     26       2.00000        -116.921403        -3181.59325
     27       2.00000        -116.921394        -3181.59301
     28       2.00000        -116.921341        -3181.59156
     29       2.00000         -59.215538        -1611.33676
     30       2.00000         -59.215500        -1611.33573
     31       2.00000         -59.215461        -1611.33469
     32       2.00000         -59.215458        -1611.33458
     33       2.00000         -59.215457        -1611.33457
     34       2.00000         -59.215443        -1611.33420
     35       2.00000         -59.215431        -1611.33385
     36       2.00000         -59.215411        -1611.33332
     37       2.00000         -52.074053        -1417.00708
     38       2.00000         -52.074029        -1417.00643
     39       2.00000         -52.074016        -1417.00608
     40       2.00000         -52.073991        -1417.00539
     41       2.00000         -52.073980        -1417.00510
     42       2.00000         -52.073978        -1417.00504
     43       2.00000         -52.073973        -1417.00491
     44       2.00000         -52.073973        -1417.00490
     45       2.00000         -52.073960        -1417.00454
     46       2.00000         -52.073952        -1417.00434
     47       2.00000         -52.073950        -1417.00426
     48       2.00000         -52.073948        -1417.00422
     49       2.00000         -52.073947        -1417.00418
     50       2.00000         -52.073943        -1417.00408
     51       2.00000         -52.073935        -1417.00386
     52       2.00000         -52.073927        -1417.00366
     53       2.00000         -52.073922        -1417.00351
     54       2.00000         -52.073905        -1417.00305
     55       2.00000         -52.073902        -1417.00298
     56       2.00000         -52.073901        -1417.00294
     57       2.00000         -52.073900        -1417.00293
     58       2.00000         -52.073887        -1417.00257
     59       2.00000         -52.073875        -1417.00223
     60       2.00000         -52.073855        -1417.00170
     61       2.00000         -23.533277         -640.37305
     62       2.00000         -23.533265         -640.37273
     63       2.00000         -23.533265         -640.37271
     64       2.00000         -23.533183         -640.37050
     65       2.00000         -19.115071         -520.14755
     66       2.00000         -19.115059         -520.14721
     67       2.00000         -19.115058         -520.14719
     68       2.00000         -19.114984         -520.14517
     69       2.00000         -19.114975         -520.14494
     70       2.00000         -19.114973         -520.14488
     71       2.00000         -19.114970         -520.14480
     72       2.00000         -19.114888         -520.14258
     73       2.00000         -19.114451         -520.13067
     74       2.00000         -19.114440         -520.13038
     75       2.00000         -19.114439         -520.13036
     76       2.00000         -19.114360         -520.12821
     77       2.00000         -12.109878         -329.52655
     78       2.00000         -12.109866         -329.52622
     79       2.00000         -12.109865         -329.52619
     80       2.00000         -12.109843         -329.52558
     81       2.00000         -12.109830         -329.52525
     82       2.00000         -12.109830         -329.52523
     83       2.00000         -12.109782         -329.52394
     84       2.00000         -12.109747         -329.52298
     85       2.00000         -12.109499         -329.51624
     86       2.00000         -12.109487         -329.51592
     87       2.00000         -12.109487         -329.51591
     88       2.00000         -12.109443         -329.51471
     89       2.00000         -12.109433         -329.51443
     90       2.00000         -12.109431         -329.51437
     91       2.00000         -12.109407         -329.51372
     92       2.00000         -12.109360         -329.51246
     93       2.00000         -12.109351         -329.51221
     94       2.00000         -12.109350         -329.51217
     95       2.00000         -12.109349         -329.51214
     96       2.00000         -12.109269         -329.50998
     97       2.00000          -7.861849         -213.93180
     98       2.00000          -7.861804         -213.93058
     99       2.00000          -7.861761         -213.92940
    100       2.00000          -7.861760         -213.92937
    101       2.00000          -7.861756         -213.92927
    102       2.00000          -7.861742         -213.92888
    103       2.00000          -7.861727         -213.92847
    104       2.00000          -7.861705         -213.92789
    105       2.00000          -5.636254         -153.37027
    106       2.00000          -5.636217         -153.36927
    107       2.00000          -5.636172         -153.36804
    108       2.00000          -5.636166         -153.36788
    109       2.00000          -5.636160         -153.36771
    110       2.00000          -5.636149         -153.36741
    111       2.00000          -5.636129         -153.36688
    112       2.00000          -5.636109         -153.36634
    113       2.00000          -5.636007         -153.36354
    114       2.00000          -5.635956         -153.36218
    115       2.00000          -5.635906         -153.36080
    116       2.00000          -5.635902         -153.36070
    117       2.00000          -5.635892         -153.36043
    118       2.00000          -5.635871         -153.35985
    119       2.00000          -5.635831         -153.35877
    120       2.00000          -5.635820         -153.35846
    121       2.00000          -5.635341         -153.34543
    122       2.00000          -5.635297         -153.34422
    123       2.00000          -5.635260         -153.34323
    124       2.00000          -5.635255         -153.34309
    125       2.00000          -5.635253         -153.34303
    126       2.00000          -5.635240         -153.34268
    127       2.00000          -5.635229         -153.34239
    128       2.00000          -5.635207         -153.34179
    129       2.00000          -3.273932          -89.08823
    130       2.00000          -3.273916          -89.08779
    131       2.00000          -3.273914          -89.08773
    132       2.00000          -3.273796          -89.08451
    133       2.00000          -2.020221          -54.97301
    134       2.00000          -2.020207          -54.97263
    135       2.00000          -2.020171          -54.97166
    136       2.00000          -2.020035          -54.96796
    137       2.00000          -2.019214          -54.94560
    138       2.00000          -2.019211          -54.94554
    139       2.00000          -2.019166          -54.94429
    140       2.00000          -2.019035          -54.94073
    141       2.00000          -2.013031          -54.77735
    142       2.00000          -2.013023          -54.77715
    143       2.00000          -2.013020          -54.77706
    144       2.00000          -2.012915          -54.77421
    145       2.00000          -1.969260          -53.58628
    146       2.00000          -1.969191          -53.58442
    147       2.00000          -1.969151          -53.58332
    148       2.00000          -1.969124          -53.58259
    149       2.00000          -1.968200          -53.55746
    150       2.00000          -1.968156          -53.55626
    151       2.00000          -1.968113          -53.55509
    152       2.00000          -1.968094          -53.55456
    153       2.00000          -1.967762          -53.54552
    154       2.00000          -1.967741          -53.54495
    155       2.00000          -1.967698          -53.54378
    156       2.00000          -1.967683          -53.54337
    157       2.00000          -1.967629          -53.54191
    158       2.00000          -1.967600          -53.54113
    159       2.00000          -1.967553          -53.53985
    160       2.00000          -1.967544          -53.53959
    161       2.00000          -1.967343          -53.53412
    162       2.00000          -1.967310          -53.53322
    163       2.00000          -1.967299          -53.53292
    164       2.00000          -1.967280          -53.53243
    165       2.00000          -1.967262          -53.53191
    166       2.00000          -1.967255          -53.53172
    167       2.00000          -1.967229          -53.53103
    168       2.00000          -1.967229          -53.53102
    169       2.00000          -1.967207          -53.53043
    170       2.00000          -1.967203          -53.53032
    171       2.00000          -1.967190          -53.52997
    172       2.00000          -1.967180          -53.52970
    173       2.00000          -1.967158          -53.52909
    174       2.00000          -1.967151          -53.52890
    175       2.00000          -1.967145          -53.52873
    176       2.00000          -1.967129          -53.52830
    177       2.00000          -1.966677          -53.51599
    178       2.00000          -1.966649          -53.51524
    179       2.00000          -1.966613          -53.51426
    180       2.00000          -1.966602          -53.51396
    181       2.00000          -1.966324          -53.50639
    182       2.00000          -1.966302          -53.50581
    183       2.00000          -1.966262          -53.50471
    184       2.00000          -1.966257          -53.50457
    185       2.00000          -0.759463          -20.66603
    186       2.00000          -0.740456          -20.14884
    187       2.00000          -0.720370          -19.60227
    188       2.00000          -0.718707          -19.55700
    189       2.00000          -0.652673          -17.76013
    190       2.00000          -0.640745          -17.43557
    191       2.00000          -0.639414          -17.39935
    192       2.00000          -0.627526          -17.07585
    193       2.00000          -0.418360          -11.38415
    194       2.00000          -0.410576          -11.17234
    195       2.00000          -0.389513          -10.59918
    196       2.00000          -0.376408          -10.24259
    197       2.00000          -0.370708          -10.08748
    198       2.00000          -0.369255          -10.04793
    199       2.00000          -0.366433           -9.97116
    200       2.00000          -0.366079           -9.96152
    201       2.00000          -0.364571           -9.92048
    202       2.00000          -0.362845           -9.87351
    203       2.00000          -0.361325           -9.83216
    204       2.00000          -0.351695           -9.57012
    205       2.00000          -0.342017           -9.30676
    206       2.00000          -0.330908           -9.00447
    207       2.00000          -0.324685           -8.83512
    208       2.00000          -0.316709           -8.61808
    209       2.00000          -0.316478           -8.61179
    210       2.00000          -0.306012           -8.32700
    211       2.00000          -0.288623           -7.85384
    212       2.00000          -0.286401           -7.79337
    213       2.00000          -0.285116           -7.75841
    214       2.00000          -0.280015           -7.61959
    215       2.00000          -0.279149           -7.59603
    216       2.00000          -0.277230           -7.54381
    217       2.00000          -0.276170           -7.51495
    218       2.00000          -0.275574           -7.49876
    219       2.00000          -0.273694           -7.44760
    220       2.00000          -0.270316           -7.35566
    221       2.00000          -0.265431           -7.22275
    222       2.00000          -0.263823           -7.17899
    223       2.00000          -0.263451           -7.16887
    224       2.00000          -0.257907           -7.01799
    225       2.00000          -0.224141           -6.09920
    226       2.00000          -0.215122           -5.85376
    227       2.00000          -0.212895           -5.79316
    228       0.00000          -0.164329           -4.47161
    229       0.00000          -0.152653           -4.15391
    230       0.00000          -0.135198           -3.67893
    231       0.00000          -0.129884           -3.53431
    232       0.00000          -0.128542           -3.49781
    233       0.00000          -0.125824           -3.42383
    234       0.00000          -0.115552           -3.14432
    235       0.00000          -0.114957           -3.12813
    236       0.00000          -0.082124           -2.23470
    237       0.00000          -0.037348           -1.01628
    238       0.00000          -0.030124           -0.81971
    239       0.00000          -0.002403           -0.06538
    240       0.00000           0.022227            0.60483
    241       0.00000           0.025850            0.70342
    242       0.00000           0.027378            0.74499
    243       0.00000           0.057645            1.56860
    244       0.00000           0.089398            2.43264
    245       0.00000           0.102132            2.77915
    246       0.00000           0.111458            3.03292
    247       0.00000           0.118620            3.22780
    248       0.00000           0.122845            3.34277
    249       0.00000           0.124968            3.40056
    250       0.00000           0.125582            3.41725
    251       0.00000           0.137648            3.74558
    252       0.00000           0.151809            4.13094
    253       0.00000           0.160081            4.35603
    254       0.00000           0.170844            4.64891
    255       0.00000           0.176847            4.81224
    256       0.00000           0.189518            5.15704
    257       0.00000           0.191959            5.22348
    258       0.00000           0.198822            5.41023
    259       0.00000           0.220182            5.99144
    260       0.00000           0.231450            6.29807
    261       0.00000           0.247573            6.73680
    262       0.00000           0.257880            7.01727
    263       0.00000           0.267250            7.27224
    264       0.00000           0.280285            7.62693
[...]
  | Sum of charges compensated after spline to logarithmic grids =   0.840877E-07
  | Analytical far-field extrapolation by fixed multipoles:
  | Hartree multipole sum: apparent total charge =   0.157711E-12
  Summing up the Hartree potential.
  Time summed over all CPUs for potential: real work       80.988 s, elapsed     1022.526 s
  | RMS charge density error from multipole expansion :   0.756732E-02
  | Average real-space part of the electrostatic potential :     -0.01097807 eV

  Integrating Hamiltonian matrix: batch-based integration.
  Time summed over all CPUs for integration: real work      110.013 s, elapsed     1206.065 s => Consider using load balancing!

  Updating Kohn-Sham eigenvalues and eigenvectors using ELSI and the (modified) LAPACK eigensolver.
  Starting LAPACK eigensolver
  Finished Cholesky decomposition
  | Time :     0.011 s
  Finished transformation to standard eigenproblem
  | Time :     0.021 s
  Finished solving standard eigenproblem
  | Time :     0.069 s
  Finished back-transformation of eigenvectors
  | Time :     0.009 s

  Obtaining occupation numbers and chemical potential using ELSI.
  | Chemical potential (Fermi level):    -4.81824330 eV
  What follows are estimated values for band gap, HOMO, LUMO, etc.
  | They are estimated on a discrete k-point grid and not necessarily exact.
  | For converged numbers, create a DOS and/or band structure plot on a denser k-grid.

  Highest occupied state (VBM) at     -4.81825679 eV (relative to internal zero)
  | Occupation number:      1.00030429
  | K-point:    1657 at    0.285714    0.476190    0.823529 (in units of recip. lattice)

  Lowest unoccupied state (CBM) at    -4.81815060 eV (relative to internal zero)
  | Occupation number:      0.99790793
  | K-point:      50 at    0.000000    0.190476    0.117647 (in units of recip. lattice)

  ESTIMATED overall HOMO-LUMO gap:      0.00010619 eV between HOMO at k-point 1657 and LUMO at k-point 50
  | This appears to be an indirect band gap.
  | Smallest direct gap :      0.06150608 eV for k_point 2459 at    0.000000    0.190476    0.117647 (in units of recip. lattice)
  However, this system has fractional occupation numbers. Since we use a finite k-point grid,
  this material is metallic within the approximate finite broadening function (occupation_type)
  applied to determine the occupation numbers.

  Total energy components:
  | Sum of eigenvalues            :      -23864.38405930 Ha     -649382.93049328 eV
  | XC energy correction          :       -1284.32667239 Ha      -34948.30690588 eV
  | XC potential correction       :        1672.90168982 Ha       45521.97111241 eV
  | Free-atom electrostatic energy:      -16511.29820684 Ha     -449295.28410054 eV
  | Hartree energy correction     :           7.20270402 Ha         195.99554859 eV
  | vdW energy correction         :           0.00000000 Ha           0.00000000 eV
  | Entropy correction            :          -0.00004250 Ha          -0.00115637 eV
  | ---------------------------
  | Total energy                  :      -39979.90454468 Ha    -1087908.55483870 eV
  | Total energy, T -> 0          :      -39979.90458718 Ha    -1087908.55599507 eV  <-- do not rely on this value for anything but (periodic) metals
  | Electronic free energy        :      -39979.90462968 Ha    -1087908.55715143 eV

  Derived energy quantities:
  | Kinetic energy                :       41145.64976088 Ha     1119630.09614570 eV
  | Electrostatic energy          :      -79841.22763318 Ha    -2172590.34407852 eV
  | Energy correction for multipole
  | error in Hartree potential    :          -0.00504747 Ha          -0.13734866 eV
  | Sum of eigenvalues per atom                           :      -54115.24420777 eV
  | Total energy (T->0) per atom                          :      -90659.04633292 eV  <-- do not rely on this value for anything but (periodic) metals
  | Electronic free energy per atom                       :      -90659.04642929 eV

  Self-consistency convergence accuracy:
  | Change of charge density      :  0.1397E-05
  | Change of sum of eigenvalues  : -0.5905E-04 eV
  | Change of total energy        :  0.2166E-06 eV

  Preliminary charge convergence reached. Turning off preconditioner.

  Electronic self-consistency reached - switching on the force computation.

  Electronic self-consistency reached - switching on the analytical stress tensor computation.

  End self-consistency iteration #    17       :  max(cpu_time)    wall_clock(cpu1)
  | Time for this iteration                    :      764.601 s         765.014 s
  | Charge density & force component update    :      153.260 s         153.276 s
  | Density mixing                             :       18.062 s          18.451 s
  | Hartree multipole update                   :        0.067 s           0.067 s
  | Hartree multipole summation                :       42.994 s          42.995 s
  | Integration                                :       51.062 s          51.064 s
  | Solution of K.-S. eqns.                    :      475.220 s         497.847 s
  | Total energy evaluation                    :        0.033 s           0.918 s

  Partial memory accounting:
  | Current value for overall tracked memory usage:
  |   Minimum:      676.766 MB (on task  0)
  |   Maximum:      680.968 MB (on task  1)
  |   Average:      677.642 MB
  | Peak value for overall tracked memory usage:
  |   Minimum:      701.301 MB (on task  0 after allocating d_wave)
  |   Maximum:      706.994 MB (on task  3 after allocating d_wave)
  |   Average:      702.935 MB
  | Largest tracked array allocation so far:
  |   Minimum:      327.520 MB (KS_eigenvector_complex on task  0)
  |   Maximum:      329.620 MB (KS_eigenvector_complex on task  1)
  |   Average:      327.957 MB
  Note:  These values currently only include a subset of arrays which are explicitly tracked.
  The "true" memory usage will be greater.
------------------------------------------------------------

------------------------------------------------------------
          Begin self-consistency iteration #   18

  Date     :  20200421, Time     :  132314.438
------------------------------------------------------------
  Evaluating new KS density using the density matrix
  Evaluating density matrix
  Time summed over all CPUs for getting density from density matrix: real work      218.833 s, elapsed     2498.399 s
  Integration grid: deviation in total charge (<rho> - N_e) =   5.913989E-09
  Pulay mixing of updated and previous charge densities.
  Renormalizing the density to the exact electron count on the 3D integration grid.
  | Formal number of electrons (from input files) :     456.0000000000
  | Integrated number of electrons on 3D grid     :     455.9999999596
  | Charge integration error                      :      -0.0000000404
  | Normalization factor for density and gradient :       1.0000000001

  Evaluating partitioned Hartree potential by multipole expansion.
  | Original multipole sum: apparent total charge =  -0.291004E-12
  | Sum of charges compensated after spline to logarithmic grids =   0.840877E-07
  | Analytical far-field extrapolation by fixed multipoles:
  | Hartree multipole sum: apparent total charge =  -0.291299E-12
  Summing up the Hartree potential.
  Time summed over all CPUs for potential: real work     4395.760 s, elapsed     4395.864 s
  | RMS charge density error from multipole expansion :   0.756732E-02
  | Average real-space part of the electrostatic potential :     -0.01097802 eV

  Integrating Hamiltonian matrix: batch-based integration.
  Time summed over all CPUs for integration: real work      110.020 s, elapsed     1210.172 s => Consider using load balancing!

  Updating Kohn-Sham eigenvalues and eigenvectors using ELSI and the (modified) LAPACK eigensolver.
  Starting LAPACK eigensolver
  Finished Cholesky decomposition
  | Time :     0.011 s
  Finished transformation to standard eigenproblem
  | Time :     0.021 s
  Finished solving standard eigenproblem
  | Time :     0.070 s
  Finished back-transformation of eigenvectors
  | Time :     0.009 s

  Obtaining occupation numbers and chemical potential using ELSI.
  | Chemical potential (Fermi level):    -4.81824348 eV
  What follows are estimated values for band gap, HOMO, LUMO, etc.
  | They are estimated on a discrete k-point grid and not necessarily exact.
  | For converged numbers, create a DOS and/or band structure plot on a denser k-grid.

  Highest occupied state (VBM) at     -4.81825709 eV (relative to internal zero)
  | Occupation number:      1.00030702
  | K-point:    1657 at    0.285714    0.476190    0.823529 (in units of recip. lattice)

  Lowest unoccupied state (CBM) at    -4.81815075 eV (relative to internal zero)
  | Occupation number:      0.99790715
  | K-point:      50 at    0.000000    0.190476    0.117647 (in units of recip. lattice)

  ESTIMATED overall HOMO-LUMO gap:      0.00010634 eV between HOMO at k-point 1657 and LUMO at k-point 50
  | This appears to be an indirect band gap.
  | Smallest direct gap :      0.06150655 eV for k_point 2459 at    0.000000    0.190476    0.117647 (in units of recip. lattice)
  However, this system has fractional occupation numbers. Since we use a finite k-point grid,
  this material is metallic within the approximate finite broadening function (occupation_type)
  applied to determine the occupation numbers.

  Total energy components:
  | Sum of eigenvalues            :      -23864.38405987 Ha     -649382.93050866 eV
  | XC energy correction          :       -1284.32667245 Ha      -34948.30690772 eV
  | XC potential correction       :        1672.90168991 Ha       45521.97111472 eV
  | Free-atom electrostatic energy:      -16511.29820684 Ha     -449295.28410054 eV
  | Hartree energy correction     :           7.20270459 Ha         195.99556395 eV
  | vdW energy correction         :           0.00000000 Ha           0.00000000 eV
  | Entropy correction            :          -0.00004250 Ha          -0.00115637 eV
  | ---------------------------
  | Total energy                  :      -39979.90454467 Ha    -1087908.55483827 eV
  | Total energy, T -> 0          :      -39979.90458716 Ha    -1087908.55599464 eV  <-- do not rely on this value for anything but (periodic) metals
  | Electronic free energy        :      -39979.90462966 Ha    -1087908.55715100 eV

  Derived energy quantities:
  | Kinetic energy                :       41145.64976096 Ha     1119630.09614775 eV
  | Electrostatic energy          :      -79841.22763317 Ha    -2172590.34407829 eV
  | Energy correction for multipole
  | error in Hartree potential    :          -0.00504747 Ha          -0.13734867 eV
  | Sum of eigenvalues per atom                           :      -54115.24420906 eV
  | Total energy (T->0) per atom                          :      -90659.04633289 eV  <-- do not rely on this value for anything but (periodic) metals
  | Electronic free energy per atom                       :      -90659.04642925 eV

  atomic forces [eV/Ang]:
  -----------------------
  atom #    1
   Hellmann-Feynman              :  0.751464E-02 -0.304665E-01 -0.145169E-04
   Ionic forces                  :  0.000000E+00  0.000000E+00  0.000000E+00
   Multipole                     :  0.324735E-03 -0.807136E-04  0.911024E-03
   Pulay + GGA                   :  0.000000E+00  0.000000E+00  0.000000E+00
   Van der Waals                 :  0.000000E+00  0.000000E+00  0.000000E+00
   ----------------------------------------------------------------
   Total forces(   1)            :  0.783937E-02 -0.305473E-01  0.896508E-03
  atom #    2
   Hellmann-Feynman              : -0.182848E-01 -0.256144E-01 -0.946814E-03
   Ionic forces                  :  0.000000E+00  0.000000E+00  0.000000E+00
   Multipole                     :  0.550102E-03  0.220636E-03 -0.702437E-03
   Pulay + GGA                   :  0.000000E+00  0.000000E+00  0.000000E+00
   Van der Waals                 :  0.000000E+00  0.000000E+00  0.000000E+00
   ----------------------------------------------------------------
   Total forces(   2)            : -0.177347E-01 -0.253937E-01 -0.164925E-02
  atom #    3
   Hellmann-Feynman              :  0.519937E-03 -0.315092E-01 -0.163807E-01
   Ionic forces                  :  0.000000E+00  0.000000E+00  0.000000E+00
   Multipole                     :  0.396587E-05 -0.307663E-03  0.879454E-03
   Pulay + GGA                   :  0.000000E+00  0.000000E+00  0.000000E+00
   Van der Waals                 :  0.000000E+00  0.000000E+00  0.000000E+00
   ----------------------------------------------------------------
   Total forces(   3)            :  0.523903E-03 -0.318169E-01 -0.155012E-01
  atom #    4
   Hellmann-Feynman              :  0.352462E-01 -0.334069E-01  0.181271E-01
   Ionic forces                  :  0.000000E+00  0.000000E+00  0.000000E+00
   Multipole                     : -0.294403E-03 -0.227556E-04 -0.608019E-03
   Pulay + GGA                   :  0.000000E+00  0.000000E+00  0.000000E+00
   Van der Waals                 :  0.000000E+00  0.000000E+00  0.000000E+00
   ----------------------------------------------------------------
   Total forces(   4)            :  0.349518E-01 -0.334296E-01  0.175190E-01
  atom #    5
   Hellmann-Feynman              :  0.874066E+00  0.278941E+01 -0.458387E+02
   Ionic forces                  :  0.000000E+00  0.000000E+00  0.000000E+00
   Multipole                     : -0.169833E-02  0.134158E-03 -0.382133E-02
   Pulay + GGA                   :  0.000000E+00  0.000000E+00  0.000000E+00
   Van der Waals                 :  0.000000E+00  0.000000E+00  0.000000E+00
   ----------------------------------------------------------------
   Total forces(   5)            :  0.872368E+00  0.278954E+01 -0.458425E+02
  atom #    6
   Hellmann-Feynman              : -0.851497E+00 -0.278917E+01 -0.457123E+02
   Ionic forces                  :  0.000000E+00  0.000000E+00  0.000000E+00
   Multipole                     :  0.153299E-02 -0.202085E-03 -0.396387E-02
   Pulay + GGA                   :  0.000000E+00  0.000000E+00  0.000000E+00
   Van der Waals                 :  0.000000E+00  0.000000E+00  0.000000E+00
   ----------------------------------------------------------------
   Total forces(   6)            : -0.849964E+00 -0.278937E+01 -0.457162E+02
  atom #    7
   Hellmann-Feynman              :  0.861140E+00 -0.277663E+01  0.457460E+02
   Ionic forces                  :  0.000000E+00  0.000000E+00  0.000000E+00
   Multipole                     : -0.153237E-02 -0.200262E-03  0.391414E-02
   Pulay + GGA                   :  0.000000E+00  0.000000E+00  0.000000E+00
   Van der Waals                 :  0.000000E+00  0.000000E+00  0.000000E+00
   ----------------------------------------------------------------
   Total forces(   7)            :  0.859608E+00 -0.277683E+01  0.457499E+02
  atom #    8
   Hellmann-Feynman              : -0.863295E+00  0.281676E+01  0.458413E+02
   Ionic forces                  :  0.000000E+00  0.000000E+00  0.000000E+00
   Multipole                     :  0.166105E-02  0.508116E-04  0.378934E-02
   Pulay + GGA                   :  0.000000E+00  0.000000E+00  0.000000E+00
   Van der Waals                 :  0.000000E+00  0.000000E+00  0.000000E+00
   ----------------------------------------------------------------
   Total forces(   8)            : -0.861634E+00  0.281681E+01  0.458451E+02
  atom #    9
   Hellmann-Feynman              : -0.852600E+00 -0.279952E+01  0.457342E+02
   Ionic forces                  :  0.000000E+00  0.000000E+00  0.000000E+00
   Multipole                     :  0.150381E-02 -0.154950E-03  0.394716E-02
   Pulay + GGA                   :  0.000000E+00  0.000000E+00  0.000000E+00
   Van der Waals                 :  0.000000E+00  0.000000E+00  0.000000E+00
   ----------------------------------------------------------------
   Total forces(   9)            : -0.851096E+00 -0.279967E+01  0.457381E+02
  atom #   10
   Hellmann-Feynman              :  0.861049E+00  0.277103E+01  0.458310E+02
   Ionic forces                  :  0.000000E+00  0.000000E+00  0.000000E+00
   Multipole                     : -0.162790E-02  0.206889E-03  0.382522E-02
   Pulay + GGA                   :  0.000000E+00  0.000000E+00  0.000000E+00
   Van der Waals                 :  0.000000E+00  0.000000E+00  0.000000E+00
   ----------------------------------------------------------------
   Total forces(  10)            :  0.859422E+00  0.277123E+01  0.458349E+02
  atom #   11
   Hellmann-Feynman              : -0.853649E+00  0.281164E+01 -0.458217E+02
   Ionic forces                  :  0.000000E+00  0.000000E+00  0.000000E+00
   Multipole                     :  0.156557E-02  0.131630E-03 -0.387140E-02
   Pulay + GGA                   :  0.000000E+00  0.000000E+00  0.000000E+00
   Van der Waals                 :  0.000000E+00  0.000000E+00  0.000000E+00
   ----------------------------------------------------------------
   Total forces(  11)            : -0.852083E+00  0.281177E+01 -0.458256E+02
  atom #   12
   Hellmann-Feynman              :  0.883166E+00 -0.279007E+01 -0.457527E+02
   Ionic forces                  :  0.000000E+00  0.000000E+00  0.000000E+00
   Multipole                     : -0.174200E-02 -0.117945E-03 -0.386520E-02
   Pulay + GGA                   :  0.000000E+00  0.000000E+00  0.000000E+00
   Van der Waals                 :  0.000000E+00  0.000000E+00  0.000000E+00
   ----------------------------------------------------------------
   Total forces(  12)            :  0.881424E+00 -0.279019E+01 -0.457566E+02


  Self-consistency convergence accuracy:
  | Change of charge density      :  0.1320E-05
  | Change of sum of eigenvalues  : -0.1539E-04 eV
  | Change of total energy        :  0.4300E-06 eV
  | Change of forces              :  0.3746E+02 eV/A

  End self-consistency iteration #    18       :  max(cpu_time)    wall_clock(cpu1)
  | Time for this iteration                    :      887.283 s         887.334 s
  | Charge density & force component update    :      153.213 s         153.232 s
  | Density mixing                             :        0.018 s           0.176 s
  | Hartree multipole update                   :        0.070 s           0.071 s
  | Hartree multipole summation                :      183.382 s         183.389 s
  | Integration                                :       51.301 s          51.303 s
  | Solution of K.-S. eqns.                    :      475.177 s         497.838 s
  | Total energy evaluation                    :        1.305 s           1.305 s

  Partial memory accounting:
  | Current value for overall tracked memory usage:
  |   Minimum:      676.766 MB (on task  0)
  |   Maximum:      680.968 MB (on task  1)
  |   Average:      677.642 MB
  | Peak value for overall tracked memory usage:
  |   Minimum:      701.301 MB (on task  0 after allocating d_wave)
  |   Maximum:      706.994 MB (on task  3 after allocating d_wave)
  |   Average:      702.935 MB
  | Largest tracked array allocation so far:
  |   Minimum:      327.520 MB (KS_eigenvector_complex on task  0)
  |   Maximum:      329.620 MB (KS_eigenvector_complex on task  1)
  |   Average:      327.957 MB
  Note:  These values currently only include a subset of arrays which are explicitly tracked.
  The "true" memory usage will be greater.
------------------------------------------------------------

------------------------------------------------------------
          Begin self-consistency iteration #   19

  Date     :  20200421, Time     :  133801.813
------------------------------------------------------------
  Evaluating new KS density using the density matrix
  Evaluating density matrix
  Time summed over all CPUs for getting density from density matrix: real work      218.672 s, elapsed     2501.941 s
  
  Evaluating density-matrix-based force terms: batch-based integration
  Evaluating density matrix
  Evaluating density matrix
