------------------------------------------------------------
          Invoking FHI-aims ...

          When using FHI-aims, please cite the following reference:

          Volker Blum, Ralf Gehrke, Felix Hanke, Paula Havu,
          Ville Havu, Xinguo Ren, Karsten Reuter, and Matthias Scheffler,
          'Ab Initio Molecular Simulations with Numeric Atom-Centered Orbitals',
          Computer Physics Communications 180, 2175-2196 (2009)

          For any questions about FHI-aims, please visit the aimsclub website
          with its forums and wiki. Contributions to both the forums and the
          wiki are warmly encouraged - they are for you, and everyone is welcome there.

------------------------------------------------------------



  Date     :  20200420, Time     :  205301.819
  Time zero on CPU 1             :   0.127170000000000E+00  s.
  Internal wall clock time zero  :           356647981.819  s.

  FHI-aims created a unique identifier for this run for later identification
  aims_uuid : 4A17F514-FC34-400B-A0BC-AA31A1B3E878

  Build configuration of the current instance of FHI-aims
  -------------------------------------------------------
  FHI-aims version      : 200112
  Commit number         : 23daeca3f
  CMake host system     : Linux-3.10.0-693.21.1.el7.x86_64
  CMake version         : 3.13.3
  Fortran compiler      : /sw/installed/impi/2018.4.274-iccifort-2019.1.144-GCC-8.2.0-2.31.1/bin64/mpiifort (Intel) version 19.0.0.20181018
  Fortran compiler flags: -O3 -ip -fp-model precise
  C compiler            : /sw/installed/impi/2018.4.274-iccifort-2019.1.144-GCC-8.2.0-2.31.1/bin64/mpiicc (Intel) version 19.0.0.20181018
  C compiler flags      : -O3 -ip -fp-model precise
  Architecture          :
  Using MPI
  Using Scalapack
  Using C files
  Using LibXC
  Using SPGlib
  Using i-PI
  Using RLSY
  Linking against: /sw/installed/imkl/2019.1.144-iimpi-2019a/mkl/lib/intel64/libmkl_intel_lp64.so
                   /sw/installed/imkl/2019.1.144-iimpi-2019a/mkl/lib/intel64/libmkl_sequential.so
                   /sw/installed/imkl/2019.1.144-iimpi-2019a/mkl/lib/intel64/libmkl_core.so
                   /sw/installed/imkl/2019.1.144-iimpi-2019a/mkl/lib/intel64/libmkl_blacs_intelmpi_lp64.so
                   /sw/installed/imkl/2019.1.144-iimpi-2019a/mkl/lib/intel64/libmkl_scalapack_lp64.so

  Using       24 parallel tasks.
  Task        0 on host taurusi6276.taurus.hrsk.tu-dresden.de reporting.
  Task        1 on host taurusi6276.taurus.hrsk.tu-dresden.de reporting.
  Task        2 on host taurusi6276.taurus.hrsk.tu-dresden.de reporting.
  Task        3 on host taurusi6276.taurus.hrsk.tu-dresden.de reporting.
  Task        4 on host taurusi6276.taurus.hrsk.tu-dresden.de reporting.
  Task        5 on host taurusi6276.taurus.hrsk.tu-dresden.de reporting.
  Task        6 on host taurusi6276.taurus.hrsk.tu-dresden.de reporting.
  Task        7 on host taurusi6276.taurus.hrsk.tu-dresden.de reporting.
  Task        8 on host taurusi6276.taurus.hrsk.tu-dresden.de reporting.
  Task        9 on host taurusi6276.taurus.hrsk.tu-dresden.de reporting.
  Task       10 on host taurusi6276.taurus.hrsk.tu-dresden.de reporting.
  Task       11 on host taurusi6276.taurus.hrsk.tu-dresden.de reporting.
  Task       12 on host taurusi6276.taurus.hrsk.tu-dresden.de reporting.
  Task       13 on host taurusi6276.taurus.hrsk.tu-dresden.de reporting.
  Task       14 on host taurusi6276.taurus.hrsk.tu-dresden.de reporting.
  Task       15 on host taurusi6276.taurus.hrsk.tu-dresden.de reporting.
  Task       16 on host taurusi6276.taurus.hrsk.tu-dresden.de reporting.
  Task       17 on host taurusi6276.taurus.hrsk.tu-dresden.de reporting.
  Task       18 on host taurusi6276.taurus.hrsk.tu-dresden.de reporting.
  Task       19 on host taurusi6276.taurus.hrsk.tu-dresden.de reporting.
  Task       20 on host taurusi6276.taurus.hrsk.tu-dresden.de reporting.
  Task       21 on host taurusi6276.taurus.hrsk.tu-dresden.de reporting.
  Task       22 on host taurusi6276.taurus.hrsk.tu-dresden.de reporting.
  Task       23 on host taurusi6276.taurus.hrsk.tu-dresden.de reporting.

  Performing system and environment tests:
  | Environment variable OMP_NUM_THREADS correctly set to 1.
  | Maximum stacksize for task 0: unlimited
  | Maximum stacksize for task 1: unlimited
  | Maximum stacksize for task 2: unlimited
  | Maximum stacksize for task 3: unlimited
  | Maximum stacksize for task 4: unlimited
  | Maximum stacksize for task 5: unlimited
  | Maximum stacksize for task 6: unlimited
  | Maximum stacksize for task 7: unlimited
  | Maximum stacksize for task 8: unlimited
  | Maximum stacksize for task 9: unlimited
  | Maximum stacksize for task 10: unlimited
  | Maximum stacksize for task 11: unlimited
  | Maximum stacksize for task 12: unlimited
  | Maximum stacksize for task 13: unlimited
  | Maximum stacksize for task 14: unlimited
  | Maximum stacksize for task 15: unlimited
  | Maximum stacksize for task 16: unlimited
  | Maximum stacksize for task 17: unlimited
  | Maximum stacksize for task 18: unlimited
  | Maximum stacksize for task 19: unlimited
  | Maximum stacksize for task 20: unlimited
  | Maximum stacksize for task 21: unlimited
  | Maximum stacksize for task 22: unlimited
  | Maximum stacksize for task 23: unlimited
  | Current stacksize for task 0: unlimited
  | Current stacksize for task 1: unlimited
  | Current stacksize for task 2: unlimited
  | Current stacksize for task 3: unlimited
  | Current stacksize for task 4: unlimited
  | Current stacksize for task 5: unlimited
  | Current stacksize for task 6: unlimited
  | Current stacksize for task 7: unlimited
  | Current stacksize for task 8: unlimited
  | Current stacksize for task 9: unlimited
  | Current stacksize for task 10: unlimited
  | Current stacksize for task 11: unlimited
  | Current stacksize for task 12: unlimited
  | Current stacksize for task 13: unlimited
  | Current stacksize for task 14: unlimited
  | Current stacksize for task 15: unlimited
  | Current stacksize for task 16: unlimited
  | Current stacksize for task 17: unlimited
  | Current stacksize for task 18: unlimited
  | Current stacksize for task 19: unlimited
  | Current stacksize for task 20: unlimited
  | Current stacksize for task 21: unlimited
  | Current stacksize for task 22: unlimited
  | Current stacksize for task 23: unlimited
  | Checking for scalapack...
  | Testing pdtran()...
  | All pdtran() tests passed.

  Obtaining array dimensions for all initial allocations:
  
  -----------------------------------------------------------------------
  Parsing control.in (first pass over file, find array dimensions only).
  The contents of control.in will be repeated verbatim below
  unless switched off by setting 'verbatim_writeout .false.' .
  in the first line of control.in .
  -----------------------------------------------------------------------
  
  #===============================================================================
  # FHI-aims file: ./control.in
  # Created using the Atomic Simulation Environment (ASE)
  # Thu Apr  2 11:27:09 2020
  #===============================================================================
  xc                                 pbe
  # include_spin_orbit
  # vdw_correction_hirshfeld
  many_body_dispersion
  spin                               none
  k_grid 	 	 26 26 21
  relativistic                       atomic_zora scalar
  energy_tolerance 1e-2
  harmonic_length_scale  0.015
  ### SCF settings
  adjust_scf 	 always 	 3
  # frozen_core_scf 	 .true.
  # charge_mix_param  0.05
  # occupation_type 	 gaussian 	 0.01
  # sc_accuracy_eev   1E-3 	 	 # sum of eigenvalues convergence
  # sc_accuracy_etot  1E-6 	 	 # total energy convergence
  # sc_accuracy_rho   1E-3 	 	 # electron density convergence
  # elsi_restart 	 read_and_write 	 1000
  ### geometry optimisation section
  relax_geometry 	 bfgs 	 1E-2
  relax_unit_cell 	 full
  #===============================================================================
  
  ################################################################################
  #
  #  FHI-aims code project
  # Volker Blum, Fritz Haber Institute Berlin, 2009
  #
  #  Suggested "tight" defaults for Pd atom (to be pasted into control.in file)
  #
  ################################################################################
    species        Pd
  #     global species definitions
      nucleus             46
      mass                106.42
  #
      l_hartree           6
  #
      cut_pot             4.0  2.0  1.0
      basis_dep_cutoff    1e-4
  #
      radial_base         62 7.0
      radial_multiplier   2
      angular_grids specified
        division   0.3627   50
        division   0.7349  110
        division   1.0624  194
        division   1.2496  302
        division   1.6740  434
  #      division   2.0126  590
  #      division   2.0830  770
  #      division   2.7936 1202
  #       outer_grid  974
        outer_grid  434
  ################################################################################
  #
  #  Definition of "minimal" basis
  #
  ################################################################################
  #     valence basis states
      valence      5  s   1.
      valence      4  p   6.
      valence      4  d   9.
  #     ion occupancy
      ion_occ     5  s   0.
      ion_occ     4  p   6.
      ion_occ     4  d   8.
  ################################################################################
  #
  #  Suggested additional basis functions. For production calculations,
  #  uncomment them one after another (the most important basis functions are
  #  listed first).
  #
  #  Constructed for dimers: 2.0 A, 2.275 A, 2.75 A, 3.75 A
  #
  ################################################################################
  #  "First tier" - max. impr. -120.76  meV, min. impr. -5.71 meV
       ionic 5 p auto
       hydro 4 f 8
       hydro 5 g 10
       hydro 3 s 2.6
       hydro 3 d 2.5
  #  "Second tier" - max. impr. -5.00  meV, min. impr. -0.62 meV
  #     hydro 5 f 17.2
  #     hydro 6 h 14
  #     hydro 4 d 4
  #     hydro 5 f 7.6
  #     hydro 3 p 3.3
  #     hydro 4 s 9.4
  #  "Third tier" - max. impr. -0.54  meV, min. impr. -0.14 meV
  #     hydro 4 f 20
  #     hydro 5 g 12.8
  #     hydro 5 d 9.8
  #     hydro 6 h 15.2
  #     hydro 5 s 10
  #     hydro 6 p 9.8
  #  "Fourth tier" - max. impr. -0.15  meV, min. impr. -0.05 meV
  #     hydro 5 f 9.2
  #     hydro 2 s 5.6
  #     hydro 5 f 43.2
  #     hydro 5 d 13.2
  #     hydro 5 g 14
  #     hydro 4 p 4.7
  ################################################################################
  #
  #  FHI-aims code project
  # Volker Blum, Fritz Haber Institute Berlin, 2009
  #
  #  Suggested "tight" defaults for Se atom (to be pasted into control.in file)
  #
  ################################################################################
    species        Se
  #     global species definitions
      nucleus             34
      mass                78.96
  #
      l_hartree           6
  #
      cut_pot             4.0          2.0  1.0
      basis_dep_cutoff    1e-4
  #
      radial_base         55 7.0
      radial_multiplier   2
      angular_grids       specified
        division   0.0830  110
        division   0.1357  194
        division   0.7377  302
        division   0.8610  434
  #      division   0.9640  590
  #      division   1.0773  770
  #      division   2.5539  974
  #      outer_grid  974
        outer_grid  434
  ################################################################################
  #
  #  Definition of "minimal" basis
  #
  ################################################################################
  #     valence basis states
      valence      4  s   2.
      valence      4  p   4.
      valence      3  d  10.
  #     ion occupancy
      ion_occ      4  s   1.
      ion_occ      4  p   3.
      ion_occ      3  d  10.
  ################################################################################
  #
  #  Suggested additional basis functions. For production calculations,
  #  uncomment them one after another (the most important basis functions are
  #  listed first).
  #
  #  Constructed for dimers: 1.85 A, 2.15 A, 2.50 A, 3.00 A, 4.00 A
  #
  ################################################################################
  #  "First tier" - improvements: -336.21 meV to -36.85 meV
       hydro 3 d 4.3
       hydro 2 p 1.6
       hydro 4 f 7.2
       ionic 4 s auto
  #  "Second tier" - improvements: -14.39 meV to -1.49 meV
  #     hydro 5 g 10.4
  #     hydro 4 p 4.5
  #     hydro 4 d 6.2
  #     hydro 4 f 11.2
  #     hydro 1 s 0.65
  #     hydro 6 h 15.2
  #  "Third tier" - improvements: -0.46 meV and below
  #     hydro 5 g 14.4
  #     ionic 4 d auto
  #     hydro 4 f 22.4
  #     hydro 5 f 7.4
  #     hydro 5 p 8
  #     hydro 5 s 9.4
  #  "Fourth tier" - improvements: -0.12 meV and below
  #     hydro 5 d 11.6
  #     hydro 6 h 18
  #     hydro 4 p 4
  #     hydro 5 f 16
  #     hydro 4 s 3.9
  #
  #
  
  -----------------------------------------------------------------------
  Completed first pass over input file control.in .
  -----------------------------------------------------------------------
  
  
  -----------------------------------------------------------------------
  Parsing geometry.in (first pass over file, find array dimensions only).
  The contents of geometry.in will be repeated verbatim below
  unless switched off by setting 'verbatim_writeout .false.' .
  in the first line of geometry.in .
  -----------------------------------------------------------------------
  
  #
  # This is the geometry file that corresponds to the current relaxation step.
  # If you do not want this file to be written, set the "write_restart_geometry" flag to .false.
  #  aims_uuid : 6507AC3A-99A9-4DF7-AE44-4B34F558ED02
  #
  lattice_vector      5.85112800      0.00000000      0.00000000
  lattice_vector      0.00000000      5.95730679      0.00000000
  lattice_vector      0.00000000      0.00000000      7.44924810
  atom_frac       0.50224502      0.00168889      0.00157571 Pd
  atom_frac       0.00167628      0.00167864      0.50238065 Pd
  atom_frac       0.00173831      0.50225428      0.00158302 Pd
  atom_frac       0.50230695      0.50224597      0.50237533 Pd
  atom_frac       0.61409480      0.11973937      0.40423524 Se
  atom_frac       0.89100928      0.88480739      0.90471612 Se
  atom_frac       0.11350538      0.38426207      0.60040906 Se
  atom_frac       0.39042686      0.62031284      0.09972628 Se
  atom_frac       0.39044987      0.88481800      0.60041037 Se
  atom_frac       0.11351547      0.11972533      0.09972160 Se
  atom_frac       0.89100634      0.62031381      0.40424195 Se
  atom_frac       0.61410610      0.38423408      0.90470531 Se
  #
  # What follows is the current estimated Hessian matrix constructed by the BFGS algorithm.
  # This is NOT the true Hessian matrix of the system.
  # If you do not want this information here, switch it off using the "hessian_to_restart_geometry" keyword.
  #
  trust_radius             0.0122098338
  hessian_block                1       1           6.244680          -0.418371          -2.365973          -0.418371           7.29718
  hessian_block                1       2          -0.581033           1.464391           0.377312          -0.397093           1.39995
  hessian_block                1       3          -0.896847           2.009167           0.553874           0.125670          -0.41041
  hessian_block                1       4           0.514248           0.211719          -0.074280           0.077033          -0.47408
  hessian_block                1       5           0.362400          -1.147214          -0.428655          -0.930957           1.38590
  hessian_block                1       6          -0.980103          -1.505654           0.081856           1.349191          -2.04752
  hessian_block                1       7          -0.790607           1.060998           0.502117           0.295593          -0.11639
  hessian_block                1       8           0.163282          -1.205831           0.074311          -0.084653          -2.34668
  hessian_block                1       9          -0.147301           0.036059           0.182007           0.225234          -1.53914
  hessian_block                1      10          -3.292820           2.603178           1.693036          -1.027113           1.45279
  hessian_block                1      11           0.644375          -1.627189          -0.563116           0.739742          -0.65277
  hessian_block                1      12           0.325634          -1.481252          -0.032492           0.045724          -2.30180
  hessian_block                2       2           7.158229           1.683378           3.202453           1.683378           8.97536
  hessian_block                2       3           2.536081           2.895860           1.807741          -0.749151          -0.92567
  hessian_block                2       4           0.205230           0.607295           0.158755          -0.470776           0.73025
  hessian_block                2       5          -2.874981          -0.940594          -1.633812           1.671295           0.71947
  hessian_block                2       6          -2.128381          -2.002182          -1.138586          -2.106215          -3.11219
  hessian_block                2       7           0.822279           0.331801           0.318297          -0.792259          -2.00486
  hessian_block                2       8          -0.988420          -1.488553          -0.891394          -0.432104          -1.05151
  hessian_block                2       9          -2.003967           0.413804          -0.922430          -0.663380          -2.34791
  hessian_block                2      10           2.440360           2.246898           1.549956           2.320950           3.55469
  hessian_block                2      11          -1.742314          -2.088531          -1.124611          -1.442736          -4.47071
  hessian_block                2      12          -1.277175          -1.262082          -0.830896          -0.483390           0.18016
  hessian_block                3       3           9.075147          -1.037845           3.899695          -1.037845           6.40734
  hessian_block                3       4           0.335228          -0.263925          -0.046375          -0.226009           0.07042
  hessian_block                3       5          -1.789576           0.375800          -1.015311           1.558989           0.10716
  hessian_block                3       6          -3.119631           0.942520          -1.936944          -2.754651          -1.19795
  hessian_block                3       7           1.347405          -0.131153           0.966949          -0.296586           0.01745
  hessian_block                3       8          -3.301132           0.014555          -1.525310          -1.489568          -0.15748
  hessian_block                3       9          -0.238135           0.335267           0.155301          -1.918892           0.20125
  hessian_block                3      10           3.374566          -0.082493           1.918320           4.310746          -2.85035
  hessian_block                3      11          -2.191923           0.435650          -1.229472          -2.045956           0.54966
  hessian_block                3      12          -3.565273           0.035106          -1.686284          -1.005257          -0.16440
  hessian_block                4       4           5.949090           0.159364          -1.960914           0.159364           7.02421
  hessian_block                4       5          -0.483229           0.596312           0.036754           0.095528          -2.28623
  hessian_block                4       6          -0.015899           0.477443          -0.165208          -0.217189          -0.46421
  hessian_block                4       7          -2.004186          -0.887630           0.856900          -0.167347          -0.17170
  hessian_block                4       8          -0.278114          -0.215424          -0.335550           0.033676          -0.54105
  hessian_block                4       9          -0.269585           0.659042           0.155034           0.126897          -2.26114
  hessian_block                4      10          -0.456724          -0.402939           0.228131          -0.196002           0.89921
  hessian_block                4      11          -1.829688          -0.048442           0.650540          -0.828506          -1.41568
  hessian_block                4      12          -0.100458           0.282025          -0.211819           0.438493           0.53703
  hessian_block                5       5           5.919645          -1.255442          -0.947040          -1.255442           7.53967
  hessian_block                5       6           1.426348          -2.111502           0.019108           1.512031          -2.09305
  hessian_block                5       7          -0.986866           2.009913          -0.225921          -0.660887          -0.26899
  hessian_block                5       8           0.681716          -0.596326           0.598173           0.874398          -0.57171
  hessian_block                5       9          -1.370748          -0.361552           1.682721           0.515670          -3.15403
  hessian_block                5      10          -1.561502           2.605948          -0.053183          -1.505006           2.20057
  hessian_block                5      11           1.364559          -2.162409           0.390244           1.750358          -0.88135
  hessian_block                5      12           0.878147          -0.523483          -0.225420          -0.115426          -1.05037
  hessian_block                6       6           7.919358           2.932570           6.289733           2.932570           8.66533
  hessian_block                6       7          -1.252410          -1.526137          -2.563276           0.898546           0.69246
  hessian_block                6       8           0.909246           1.550666           2.189448           0.880433           1.10906
  hessian_block                6       9           0.037361           0.077770          -0.097549           2.051623           2.80791
  hessian_block                6      10          -4.674640          -4.403904          -8.305300          -3.947832          -5.38319
  hessian_block                6      11           1.928443           2.253138           3.314884           0.678014           2.19568
  hessian_block                6      12           1.516218           1.332731           2.452452           0.706017           0.47469
  hessian_block                7       7           6.050758           0.225547           1.015046           0.225547           6.17786
  hessian_block                7       8          -0.612986           0.058652           0.183774          -0.345879          -0.23977
  hessian_block                7       9           0.394472           0.576009          -0.236921          -1.573849          -0.04603
  hessian_block                7      10           1.769412          -1.156056          -0.501702           1.738922          -0.95856
  hessian_block                7      11          -2.715345           0.814864          -1.555664          -0.098192          -2.04155
  hessian_block                7      12          -0.456013           0.203925           0.605978          -0.804339           0.60712
  hessian_block                8       8           5.241002           0.456960          -1.548903           0.456960           5.91867
  hessian_block                8       9           0.206992          -0.506664          -0.184505           1.009327           0.76239
  hessian_block                8      10          -1.181351          -1.139520           1.901100          -1.943851          -1.51702
  hessian_block                8      11           0.990210           0.371530          -1.228992           1.259506           1.65832
  hessian_block                8      12          -0.264532           1.381390           1.093073           1.100321          -1.37618
  hessian_block                9       9           5.024321          -0.551930          -0.782529          -0.551930           7.79042
  hessian_block                9      10           0.025966          -1.933068          -0.129919          -0.135052          -2.48212
  hessian_block                9      11          -0.207720           2.142554          -0.213291          -0.724226           1.66462
  hessian_block                9      12           0.114255           0.569815           0.618634           0.181474           0.25080
  hessian_block               10      10           9.182039           4.180660           5.508952           4.180660          10.75281
  hessian_block               10      11          -2.217676          -2.218591          -2.040515          -1.367990          -3.27357
  hessian_block               10      12          -1.841722          -1.577832          -1.749115          -1.150713          -0.74825
  hessian_block               11      11           6.701980           1.339000           1.178271           1.339000           8.85154
  hessian_block               11      12           0.841014           0.740986          -0.217369           0.788427          -0.53717
  hessian_block               12      12           5.395819           0.298670           0.183258           0.298670           5.77539
  hessian_block_lv             1       1          23.531585          -3.500987           5.333016          -3.500987          23.72538
  hessian_block_lv_atom        1       1          -0.122153          -0.098689          -0.399686           0.176421           0.36659
  hessian_block_lv_atom        1       2           0.148575           0.193394           0.676776           0.979129           0.97357
  hessian_block_lv_atom        1       3           0.376928           0.500373           1.052261           0.025082           0.15790
  hessian_block_lv_atom        1       4           0.020794           0.064062          -0.046825           0.758489           0.68394
  hessian_block_lv_atom        1       5          -0.181246          -0.305373          -0.282593           0.791212           1.03899
  hessian_block_lv_atom        1       6          -0.739818          -1.395003          -1.454464          -1.431963          -1.69868
  hessian_block_lv_atom        1       7           0.005524           0.016635           0.831984          -0.899582          -1.10630
  hessian_block_lv_atom        1       8          -0.381893          -0.318623          -0.738565          -0.232219          -0.29549
  hessian_block_lv_atom        1       9           0.128876           0.232220          -0.172065          -1.338714          -1.53759
  hessian_block_lv_atom        1      10           0.843059           1.549460           1.772045           1.625014           1.71218
  hessian_block_lv_atom        1      11          -0.119470          -0.194472          -1.006206          -0.289406          -0.03961
  hessian_block_lv_atom        1      12           0.020820          -0.243984          -0.232664          -0.163460          -0.25549
  symmetry_n_params 39 3 36
  symmetry_params a1 b2 c3 x0 x1 x2 x3 x4 x5 x6 x7 x8 x9 x10 x11 x12 x13 x14 x15 x16 x17 x18 x19 x20 x21 x22 x23 x24 x25 x26 x27 x28 x
  symmetry_lv a1 , 0 , 0
  symmetry_lv 0 , b2 , 0
  symmetry_lv 0 , 0 , c3
  symmetry_frac x0 , x1 , x2
  symmetry_frac x3 , x4 , x5
  symmetry_frac x6 , x7 , x8
  symmetry_frac x9 , x10 , x11
  symmetry_frac x12 , x13 , x14
  symmetry_frac x15 , x16 , x17
  symmetry_frac x18 , x19 , x20
  symmetry_frac x21 , x22 , x23
  symmetry_frac x24 , x25 , x26
  symmetry_frac x27 , x28 , x29
  symmetry_frac x30 , x31 , x32
  symmetry_frac x33 , x34 , x35
  
  -----------------------------------------------------------------------
  Completed first pass over input file geometry.in .
  -----------------------------------------------------------------------
  

  Basic array size parameters:
  | Number of species                 :        2
  | Number of atoms                   :       12
  | Number of lattice vectors         :        3
  | Max. basis fn. angular momentum   :        4
  | Max. atomic/ionic basis occupied n:        5
  | Max. number of basis fn. types    :        3
  | Max. radial fns per species/type  :       10
  | Max. logarithmic grid size        :     1444
  | Max. radial integration grid size :      125
  | Max. angular integration grid size:      434
  | Max. angular grid division number :        8
  | Radial grid for Hartree potential :     1444
  | Number of spin channels           :        1

------------------------------------------------------------
          Reading file control.in.
------------------------------------------------------------
  XC: Using PBE gradient-corrected functionals.
  Using libMBD for calculating MBD and TS energies
  Spin treatment: No spin polarisation.
  Found k-point grid:        26        26        21
  Scalar relativistic treatment of kinetic energy: on-site free-atom approximation to ZORA.
  Max energy increase before discarding BFGS move:   0.100000E-01 eV
  Assuming qualitatively harmonic for steps shorter than   0.150000E-01 A.
  S.C.F. convergence parameters will be adjusted in iteration number     3 of each new s.c.f. cycle.
  Geometry relaxation: Modified BFGS - TRM (trust radius method) for lattice optimization.
  Convergence accuracy for geometry relaxation: Maximum force <   0.100000E-01 eV/A.
 
  Reading configuration options for species Pd                  .
  | Found nuclear charge :  46.0000
  | Found atomic mass :    106.420000000000      amu
  | Found l_max for Hartree potential  :   6
  | Found cutoff potl. onset [A], width [A], scale factor :    4.00000    2.00000    1.00000
  | Threshold for basis-dependent cutoff potential is   0.100000E-03
  | Found data for basic radial integration grid :    62 points, outermost radius =    7.000 A
  | Found multiplier for basic radial grid :   2
  | Found angular grid specification: user-specified.
  | Specified grid contains     6 separate shells.
  | Check grid settings after all constraints further below.
  | Found free-atom valence shell :  5 s   1.000
  | Found free-atom valence shell :  4 p   6.000
  | Found free-atom valence shell :  4 d   9.000
  | Found free-ion valence shell :  5 s   0.000
  | Found free-ion valence shell :  4 p   6.000
  | Found free-ion valence shell :  4 d   8.000
  | Found ionic basis function :  5 p , default cutoff radius.
  | Found hydrogenic basis function :  4 f   8.000
  | Found hydrogenic basis function :  5 g  10.000
  | Found hydrogenic basis function :  3 s   2.600
  | Found hydrogenic basis function :  3 d   2.500
  Species Pd                  : Missing cutoff potential type.
  Defaulting to exp(1/x)/(1-x)^2 type cutoff potential.
  Species Pd: No 'logarithmic' tag. Using default grid for free atom:
  | Default logarithmic grid data [bohr] : 0.1000E-03 0.1000E+03 0.1012E+01
  | Will include ionic basis functions of  2.0-fold positive Pd                   ion.
  Species Pd: On-site basis accuracy parameter (for Gram-Schmidt orthonormalisation) not specified.
  Using default value basis_acc =  0.1000000E-03.
  Species Pd                  : Using default innermost maximum threshold i_radial=  2 for radial functions.
  Species Pd                  : Default cutoff onset for free atom density etc. : 0.40000000E+01 AA.
  Species Pd                  : Basic radial grid will be enhanced according to radial_multiplier =   2, to contain   125 grid points.
 
  Reading configuration options for species Se                  .
  | Found nuclear charge :  34.0000
  | Found atomic mass :    78.9600000000000      amu
  | Found l_max for Hartree potential  :   6
  | Found cutoff potl. onset [A], width [A], scale factor :    4.00000    2.00000    1.00000
  | Threshold for basis-dependent cutoff potential is   0.100000E-03
  | Found data for basic radial integration grid :    55 points, outermost radius =    7.000 A
  | Found multiplier for basic radial grid :   2
  | Found angular grid specification: user-specified.
  | Specified grid contains     5 separate shells.
  | Check grid settings after all constraints further below.
  | Found free-atom valence shell :  4 s   2.000
  | Found free-atom valence shell :  4 p   4.000
  | Found free-atom valence shell :  3 d  10.000
  | Found free-ion valence shell :  4 s   1.000
  | Found free-ion valence shell :  4 p   3.000
  | Found free-ion valence shell :  3 d  10.000
  | Found hydrogenic basis function :  3 d   4.300
  | Found hydrogenic basis function :  2 p   1.600
  | Found hydrogenic basis function :  4 f   7.200
  | Found ionic basis function :  4 s , default cutoff radius.
  Species Se                  : Missing cutoff potential type.
  Defaulting to exp(1/x)/(1-x)^2 type cutoff potential.
  Species Se: No 'logarithmic' tag. Using default grid for free atom:
  | Default logarithmic grid data [bohr] : 0.1000E-03 0.1000E+03 0.1012E+01
  | Will include ionic basis functions of  2.0-fold positive Se                   ion.
  Species Se: On-site basis accuracy parameter (for Gram-Schmidt orthonormalisation) not specified.
  Using default value basis_acc =  0.1000000E-03.
  Species Se                  : Using default innermost maximum threshold i_radial=  2 for radial functions.
  Species Se                  : Default cutoff onset for free atom density etc. : 0.40000000E+01 AA.
  Species Se                  : Basic radial grid will be enhanced according to radial_multiplier =   2, to contain   111 grid points.
 
  Finished reading input file 'control.in'. Consistency checks are next.
 
  MPI_IN_PLACE appears to work with this MPI implementation.
  | Keeping use_mpi_in_place .true. (see manual).
  Target number of points in a grid batch is not set. Defaulting to  100
  Method for grid partitioning is not set. Defaulting to parallel hash+maxmin partitioning.
  Batch size limit is not set. Defaulting to    200
  By default, will store active basis functions for each batch.
  If in need of memory, prune_basis_once .false. can be used to disable this option.
  communication_type for Hartree potential was not specified.
  Defaulting to calc_hartree .
  Defaulting to Pulay charge density mixer.
  Pulay mixer: Number of relevant iterations not set.
  Defaulting to    8 iterations.
  Pulay mixer: Number of initial linear mixing iterations not set.
  Defaulting to    0 iterations.
  Work space size for distributed Hartree potential not set.
  Defaulting to   0.200000E+03 MB.
  Mixing parameter for charge density mixing has not been set.
  Using default: charge_mix_param =     0.0500.
  The mixing parameter will be adjusted in iteration number     3 of each s.c.f. cycle (i.e., each geometry step).
  Algorithm-dependent basis array size parameters:
  | n_max_pulay                         :        8
  Maximum number of self-consistency iterations not provided.
  Presetting  1000 iterations.
  Presetting      1001 iterations before the initial mixing cycle
  is restarted anyway using the sc_init_iter criterion / keyword.
  Presetting a factor      1.000 between actual scf density residual
  and density convergence criterion sc_accuracy_rho below which sc_init_iter
  takes no effect.
 * No s.c.f. convergence criteria (sc_accuracy_*) were provided in control.in.
 * The run will proceed with a reasonable default guess, but please check whether.
 * the s.c.f. cycles seem to take too much or too little time.
  No maximum number of relaxation steps, defaulting to     1000
  Using explicit Hessian from geometry.in.
  Maximum energy tolerance by which TRM/BFGS trajectory may increase over multiple steps:   0.300000E-02
  No trust radius initializer. Defaulting to   0.200000E+00 A.
  Unit cell relaxation: Unit cell will be relaxed fully.
  Unit cell relaxation: Analytical stress will be used.
  Analytical stress will be computed.
  Analytical stress calculation: Only the upper triangle is calculated.
                                 Final output is symmetrized.
  Analytical stress calculation: scf convergence accuracy of stress not set.
                                 Analytical stress self-consistency will not be checked explicitly.
                                 Be sure to set other criteria like sc_accuracy_rho tight enough.
 * Notice: The s.c.f. convergence criterion sc_accuracy_rho was not provided.
 * We used to stop in this case, and ask the user to provide reasonable
 * scf convergence criteria. However, this led some users to employ criteria
 * that led to extremely long run times, e.g., for simple relaxation.
 * We now preset a default value for sc_accuracy_rho if it is not set.
 * You may still wish to check if this setting is too tight or too loose for your needs.
 * Based on n_atoms, FHI-aims chose sc_accuracy_rho =  0.141421E-05 .
  Force calculation: scf convergence accuracy of forces not set.
  Defaulting to 'sc_accuracy_forces not_checked'.
  Handling of forces: Unphysical translation and rotation will be removed from forces.
  No accuracy limit for integral partition fn. given. Defaulting to  0.1000E-14.
  No threshold value for u(r) in integrations given. Defaulting to  0.1000E-05.
  No occupation type (smearing scheme) given. Defaulting to Gaussian broadening, width =  0.1000E-01 eV.
  The width will be adjusted in iteration number     3 of each s.c.f. cycle (i.e., each geometry step).
  S.C.F. convergence parameters will be adjusted in iteration number     3 of the first full s.c.f. cycle only.
  No accuracy for occupation numbers given. Defaulting to  0.1000E-12.
  No threshold value for occupation numbers given. Defaulting to  0.0000E+00.
  No accuracy for fermi level given. Defaulting to  0.1000E-19.
  Maximum # of iterations to find E_F not set. Defaulting to  200.
  Preferred method for the eigenvalue solver ('KS_method') not specified in 'control.in'.
  Defaulting to serial version, LAPACK (via ELSI), since more k-points than CPUs available.
  Will not use alltoall communication since running on < 1024 CPUs.
  Threshold for basis singularities not set.
  Default threshold for basis singularities:  0.1000E-04
  partition_type (choice of integration weights) for integrals was not specified.
  | Using a version of the partition function of Stratmann and coworkers ('stratmann_sparse').
  | At each grid point, the set of atoms used to build the partition table is smoothly restricted to
  | only those atoms whose free-atom density would be non-zero at that grid point.
  Partitioning for Hartree potential was not defined. Using partition_type for integrals.
  | Adjusted default value of keyword multip_moments_threshold to:       0.10000000E-11
  | This value may affect high angular momentum components of the Hartree potential in periodic systems.
  Angular momentum expansion for Kerker preconditioner not set explicitly.
  | Using default value of   0
  No explicit requirement for turning off preconditioner.
  | By default, it will be turned off when the charge convergence reaches
  | sc_accuracy_rho  =   0.141421E-05
  No special mixing parameter while Kerker preconditioner is on.
  Using default: charge_mix_param =     0.0500.
  No q(lm)/r^(l+1) cutoff set for long-range Hartree potential.
  | Using default value of  0.100000E-09 .
  | Verify using the multipole_threshold keyword.
  Defaulting to new monopole extrapolation.
  Density update method: automatic selection selected.
  Using density matrix based charge density update.
  Using density matrix based charge density update.
  Using packed matrix style: index .
  Geometry relaxation: A file "geometry.in.next_step" is written out by default after each step.
  | This file contains the geometry of the current relaxation step as well as
  | the current Hessian matrix needed to restart the relaxation algorithm.
  | If you do not want part or all of this information, use the keywords
  | "write_restart_geometry" or "hessian_to_restart_geometry" to switch the output off.
  Defaulting to use time-reversal symmetry for k-point grid.
  Charge integration errors on the 3D integration grid will be compensated
  by explicit normalization and distribution of residual charges.
  Use the "compensate_multipole_errors" flag to change this behaviour.
------------------------------------------------------------


------------------------------------------------------------
          Reading geometry description geometry.in.
------------------------------------------------------------
  Input structure read successfully.
  The structure contains       12 atoms,  and a total of        456.000 electrons.

  Input geometry:
  | Unit cell:
  |        5.85112800        0.00000000        0.00000000
  |        0.00000000        5.95730679        0.00000000
  |        0.00000000        0.00000000        7.44924810
  | Atomic structure:
  |       Atom                x [A]            y [A]            z [A]
  |    1: Species Pd            2.93869990        0.01006124        0.01173785
  |    2: Species Pd            0.00980813        0.01000017        3.74235810
  |    3: Species Pd            0.01017107        2.99208283        0.01179231
  |    4: Species Pd            2.93906226        2.99203333        3.74231847
  |    5: Species Se            3.59314728        0.71332416        3.01124859
  |    6: Species Se            5.21340935        5.27106907        6.73945484
  |    7: Species Se            0.66413451        2.28916704        4.47259605
  |    8: Species Se            2.28443753        3.69539389        0.74288580
  |    9: Species Se            2.28457217        5.27113228        4.47260581
  |   10: Species Se            0.66419354        0.71324052        0.74285094
  |   11: Species Se            5.21339214        3.69539967        3.01129858
  |   12: Species Se            3.59321340        2.28900029        6.73937431

  Lattice parameters for 3D lattice (in Angstroms) :     5.851128    5.957307    7.449248
  Angle(s) between unit vectors (in degrees)       :    90.000000   90.000000   90.000000

  | The smallest distance between any two atoms is         2.40076860 AA.
  | The first atom of this pair is atom number                      6 .
  | The second atom of this pair is atom number                    10 .
  | Wigner-Seitz cell of the first atom image           0     0     0 .
  | (The Wigner-Seitz cell of the second atom is 0 0 0  by definition.)

  Symmetry information by spglib:
  | Precision set to  0.1E-04
  | Number of Operations  : 1
  | Space group           : 1
  | International         : P1
  | Schoenflies           : C1^1

  Quantities derived from the lattice vectors:
  | Reciprocal lattice vector 1:  1.073842  0.000000  0.000000
  | Reciprocal lattice vector 2:  0.000000  1.054702  0.000000
  | Reciprocal lattice vector 3:  0.000000  0.000000  0.843466
  | Unit cell volume                               :   0.259658E+03  A^3

  Range separation radius for Ewald summation (hartree_convergence_parameter):      4.00092103 bohr.

  Fractional coordinates:
                         L1                L2                L3
       atom_frac         0.50224502        0.00168889        0.00157571  Pd
       atom_frac         0.00167628        0.00167864        0.50238065  Pd
       atom_frac         0.00173831        0.50225428        0.00158302  Pd
       atom_frac         0.50230695        0.50224597        0.50237533  Pd
       atom_frac         0.61409480        0.11973937        0.40423524  Se
       atom_frac         0.89100928        0.88480739        0.90471612  Se
       atom_frac         0.11350538        0.38426207        0.60040906  Se
       atom_frac         0.39042686        0.62031284        0.09972628  Se
       atom_frac         0.39044987        0.88481800        0.60041037  Se
       atom_frac         0.11351547        0.11972533        0.09972160  Se
       atom_frac         0.89100634        0.62031381        0.40424195  Se
       atom_frac         0.61410610        0.38423408        0.90470531  Se

  Number of empty states per atom not set in control.in - providing a guess from actual geometry.
  | Total number of empty states used during s.c.f. cycle:       66
  If you use a very high smearing, use empty_states (per atom!) in control.in to increase this value.

  Structure-dependent array size parameters: 
  | Maximum number of distinct radial functions  :       27
  | Maximum number of basis functions            :      468
  | Number of Kohn-Sham states (occupied + empty):      294
------------------------------------------------------------

------------------------------------------------------------
          Preparing all fixed parts of the calculation.
------------------------------------------------------------
  Determining machine precision:
    2.225073858507201E-308
  Setting up grids for atomic and cluster calculations.

  Creating wave function, potential, and density for free atoms.

  Species: Pd

  List of occupied orbitals and eigenvalues:
    n    l              occ      energy [Ha]    energy [eV]
    1    0           2.0000      -913.269104    -24851.3168
    2    0           2.0000      -130.434372     -3549.2998
    3    0           2.0000       -23.521804      -640.0609
    4    0           2.0000        -3.256918       -88.6253
    5    0           1.0000        -0.157260        -4.2793
    2    1           6.0000      -116.910756     -3181.3035
    3    1           6.0000       -19.103344      -519.8284
    4    1           6.0000        -1.998052       -54.3697
    3    2          10.0000       -12.098182      -329.2083
    4    2           9.0000        -0.243389        -6.6230


  Species: Se

  List of occupied orbitals and eigenvalues:
    n    l              occ      energy [Ha]    energy [eV]
    1    0           2.0000      -466.337810    -12689.6975
    2    0           2.0000       -59.202598     -1610.9847
    3    0           2.0000        -7.847116      -213.5309
    4    0           2.0000        -0.634372       -17.2621
    2    1           6.0000       -52.061107     -1416.6548
    3    1           6.0000        -5.620941      -152.9536
    4    1           4.0000        -0.238469        -6.4891
    3    2          10.0000        -1.951949       -53.1152

  Creating fixed part of basis set: Ionic, confined, hydrogenic.
 
  Pd                   ion:

  List of free ionic orbitals and eigenvalues:
    n    l      energy [Ha]    energy [eV]
    1    0      -914.099884    -24873.9234
    2    0      -131.248265     -3571.4470
    3    0       -24.332473      -662.1203
    4    0        -4.059276      -110.4585
    2    1      -117.724296     -3203.4411
    3    1       -19.913908      -541.8850
    4    1        -2.795328       -76.0648
    3    2       -12.908733      -351.2645
    4    2        -1.004248       -27.3270


  List of ionic basis orbitals and eigenvalues:
    n    l      energy [Ha]    energy [eV]    outer radius [A]
    5    1        -0.516938       -14.0666       5.427025

 
  Pd                   hydrogenic:
 
  List of hydrogenic basis orbitals: 
    n    l      effective z      eigenvalue [eV]  inner max. [A]     outer max. [A]     outer radius [A]   
    4    3         8.000000       -54.4226           1.054686           1.054686           4.629581
    5    4        10.000000       -54.4226           1.330451           1.330451           5.043202
    3    0         2.600000        -9.8948           0.150992           2.606197           5.493778
    3    2         2.500000        -9.3396           1.873517           1.873517           5.493778
 
 
  Se                   ion:

  List of free ionic orbitals and eigenvalues:
    n    l      energy [Ha]    energy [eV]
    1    0      -467.261007    -12714.8189
    2    0       -60.104893     -1635.5374
    3    0        -8.743714      -237.9286
    4    0        -1.414053       -38.4783
    2    1       -52.964156     -1441.2280
    3    1        -6.516916      -177.3343
    4    1        -0.961869       -26.1738
    3    2        -2.844511       -77.4031


  List of ionic basis orbitals and eigenvalues:
    n    l      energy [Ha]    energy [eV]    outer radius [A]
    4    0        -1.414046       -38.4782       4.083166

 
  Se                   hydrogenic:
 
  List of hydrogenic basis orbitals: 
    n    l      effective z      eigenvalue [eV]  inner max. [A]     outer max. [A]     outer radius [A]   
    3    2         4.300000       -27.9518           1.103845           1.103845           5.278265
    2    1         1.600000        -8.6828           1.326010           1.326010           5.475439
    4    3         7.200000       -44.0822           1.173422           1.173422           4.965294
 

  Adding cutoff potential to free-atom effective potential.
  Creating atomic-like basis functions for current effective potential.

  Species Pd                  :

  List of atomic basis orbitals and eigenvalues:
    n    l      energy [Ha]    energy [eV]    outer radius [A]
    1    0      -913.269104    -24851.3168       0.223280
    2    0      -130.434372     -3549.2998       0.615909
    3    0       -23.521804      -640.0609       1.414312
    4    0        -3.256918       -88.6253       3.581357
    5    0        -0.157260        -4.2793       5.427025
    2    1      -116.910756     -3181.3035       0.631154
    3    1       -19.103344      -519.8284       1.540671
    4    1        -1.998052       -54.3697       4.408641
    3    2       -12.098182      -329.2083       1.806051
    4    2        -0.243389        -6.6230       5.361084


  Species Se                  :

  List of atomic basis orbitals and eigenvalues:
    n    l      energy [Ha]    energy [eV]    outer radius [A]
    1    0      -466.337810    -12689.6975       0.309561
    2    0       -59.202598     -1610.9847       0.885812
    3    0        -7.847116      -213.5309       2.355489
    4    0        -0.634372       -17.2621       5.214131
    2    1       -52.061107     -1416.6548       0.907737
    3    1        -5.620941      -152.9536       2.694529
    4    1        -0.238469        -6.4891       5.408909
    3    2        -1.951949       -53.1152       4.083166

  Assembling full basis from fixed parts.
  | Species Pd :   atomic orbital   1 s accepted.
  | Species Pd :   atomic orbital   2 s accepted.
  | Species Pd :   atomic orbital   3 s accepted.
  | Species Pd :   atomic orbital   4 s accepted.
  | Species Pd :   atomic orbital   5 s accepted.
  | Species Pd :    hydro orbital   3 s accepted.
  | Species Pd :   atomic orbital   2 p accepted.
  | Species Pd :   atomic orbital   3 p accepted.
  | Species Pd :   atomic orbital   4 p accepted.
  | Species Pd :    ionic orbital   5 p accepted.
  | Species Pd :   atomic orbital   3 d accepted.
  | Species Pd :   atomic orbital   4 d accepted.
  | Species Pd :    hydro orbital   3 d accepted.
  | Species Pd :    hydro orbital   4 f accepted.
  | Species Pd :    hydro orbital   5 g accepted.
  | Species Se :   atomic orbital   1 s accepted.
  | Species Se :   atomic orbital   2 s accepted.
  | Species Se :   atomic orbital   3 s accepted.
  | Species Se :    ionic orbital   4 s accepted.
  | Species Se :   atomic orbital   4 s accepted.
  | Species Se :   atomic orbital   2 p accepted.
  | Species Se :   atomic orbital   3 p accepted.
  | Species Se :   atomic orbital   4 p accepted.
  | Species Se :    hydro orbital   2 p accepted.
  | Species Se :   atomic orbital   3 d accepted.
  | Species Se :    hydro orbital   3 d accepted.
  | Species Se :    hydro orbital   4 f accepted.
 
  Basis size parameters after reduction:
  | Total number of radial functions:       27
  | Total number of basis functions :      468
 
  Per-task memory consumption for arrays in subroutine allocate_ext:
  |           9.993344MB.
  Testing on-site integration grid accuracy.
  |  Species  Function  <phi|h_atom|phi> (log., in eV)  <phi|h_atom|phi> (rad., in eV)
           1        1             -24851.3167505682             -24851.3148165635
           1        2              -3549.2998457785              -3549.2998098031
           1        3               -640.0608571327               -640.0608534886
           1        4                -88.6252603131                -88.6252593316
           1        5                 -4.2849374515                 -4.2849400622
           1        6                  4.9432123540                  4.9432188418
           1        7              -3181.3035399559              -3181.3035364574
           1        8               -519.8284281886               -519.8284264063
           1        9                -54.3697495804                -54.3697489261
           1       10                  0.8628369484                  0.8628370487
           1       11               -329.2082917394               -329.2082912864
           1       12                 -6.6230267036                 -6.6230265076
           1       13                  5.4924295291                  5.4924115607
           1       14                 25.0740861942                 25.0740861175
           1       15                 38.8271273823                 38.8271278029
           2       16             -12689.6974611609             -12689.6967666984
           2       17              -1610.9846578580              -1610.9846472470
           2       18               -213.5308789869               -213.5308777267
           2       19                -17.0464428502                -17.0464426496
           2       20                  6.7356859379                  6.7356842047
           2       21              -1416.6548010133              -1416.6548002108
           2       22               -152.9535734377               -152.9535727493
           2       23                 -6.4896265677                 -6.4896303794
           2       24                  5.2703037283                  5.2701679583
           2       25                -53.1152220964                -53.1152219035
           2       26                  7.6186674138                  7.6186665630
           2       27                 23.1072799052                 23.1072803137

  Preparing densities etc. for the partition functions (integrals / Hartree potential).

  Preparations completed.
  max(cpu_time)          :      0.558 s.
  Wall clock time (cpu1) :      0.698 s.
------------------------------------------------------------

------------------------------------------------------------
          Begin self-consistency loop: Initialization.

          Date     :  20200420, Time     :  205303.006
------------------------------------------------------------

  Initializing index lists of integration centers etc. from given atomic structure:
  Mapping all atomic coordinates to central unit cell.

  Initializing the k-points
  Using symmetry for reducing the k-points
  | k-points reduced from:    14196 to     7100
  | Number of k-points                             :      7100
  The eigenvectors in the calculations are COMPLEX.
  | K-points in task   0:       295
  | K-points in task   1:       296
  | K-points in task   2:       296
  | K-points in task   3:       296
  | K-points in task   4:       296
  | K-points in task   5:       296
  | K-points in task   6:       296
  | K-points in task   7:       296
  | K-points in task   8:       296
  | K-points in task   9:       296
  | K-points in task  10:       296
  | K-points in task  11:       296
  | K-points in task  12:       296
  | K-points in task  13:       296
  | K-points in task  14:       296
  | K-points in task  15:       296
  | K-points in task  16:       296
  | K-points in task  17:       296
  | K-points in task  18:       296
  | K-points in task  19:       296
  | K-points in task  20:       296
  | K-points in task  21:       295
  | K-points in task  22:       295
  | K-points in task  23:       295
  | Number of basis functions in the Hamiltonian integrals :      5582
  | Number of basis functions in a single unit cell        :       468
  | Number of centers in hartree potential         :      1318
  | Number of centers in hartree multipole         :       766
  | Number of centers in electron density summation:       595
  | Number of centers in basis integrals           :       640
  | Number of centers in integrals                 :       236
  | Number of centers in hamiltonian               :       596
  | Consuming       9540 KiB for k_phase.
  | Number of super-cells (origin) [n_cells]                     :         567
  | Number of super-cells (after PM_index) [n_cells]             :          86
  | Number of super-cells in hamiltonian [n_cells_in_hamiltonian]:          86
  | Size of matrix packed + index [n_hamiltonian_matrix_size] :     1292352

  Initializing relaxation algorithms.
  | Estimated reciprocal-space cutoff momentum G_max:         2.42755516 bohr^-1 .
  | Reciprocal lattice points for long-range Hartree potential:     418
  Partitioning the integration grid into batches with parallel hashing+maxmin method.
  | Number of batches:     4182
  | Maximal batch size:     110
  | Minimal batch size:      50
  | Average batch size:      91.855
  | Standard deviation of batch sizes:      11.405

  Integration load balanced across    24 MPI tasks.
  Work distribution over tasks is as follows:
  Task     0 has      16040 integration points.
  Task     1 has      16006 integration points.
  Task     2 has      16023 integration points.
  Task     3 has      16030 integration points.
  Task     4 has      15969 integration points.
  Task     5 has      15986 integration points.
  Task     6 has      16042 integration points.
  Task     7 has      16029 integration points.
  Task     8 has      15990 integration points.
  Task     9 has      16039 integration points.
  Task    10 has      15984 integration points.
  Task    11 has      15974 integration points.
  Task    12 has      15968 integration points.
  Task    13 has      16037 integration points.
  Task    14 has      15968 integration points.
  Task    15 has      16027 integration points.
  Task    16 has      15991 integration points.
  Task    17 has      16027 integration points.
  Task    18 has      15990 integration points.
  Task    19 has      15971 integration points.
  Task    20 has      16024 integration points.
  Task    21 has      16003 integration points.
  Task    22 has      15985 integration points.
  Task    23 has      16033 integration points.
  Initializing partition tables, free-atom densities, potentials, etc. across the integration grid (initialize_grid_storage).
  | initialize_grid_storage: Actual outermost partition radius vs. multipole_radius_free
  | (-- VB: in principle, multipole_radius_free should be larger, hence this output)
  | Species        1: Confinement radius =              6.000000000000000 AA, multipole_radius_free =              6.058219618167466 AA.
  | Species        1: outer_partition_radius set to              6.058219618167466 AA .
  | Species        2: Confinement radius =              6.000000000000000 AA, multipole_radius_free =              6.037996416842453 AA.
  | Species        2: outer_partition_radius set to              6.037996416842453 AA .
  | The sparse table of interatomic distances needs       2897.83 kbyte instead of      3276.80 kbyte of memory.
  | Net number of integration points:   384136
  | of which are non-zero points    :   322165
  | Numerical average free-atom electrostatic potential    :    -17.05487548 eV
  Renormalizing the initial density to the exact electron count on the 3D integration grid.
  | Initial density: Formal number of electrons (from input files) :     456.0000000000
  | Integrated number of electrons on 3D grid     :     456.0000476520
  | Charge integration error                      :       0.0000476520
  | Normalization factor for density and gradient :       0.9999998955
  Renormalizing the free-atom superposition density to the exact electron count on the 3D integration grid.
  | Formal number of electrons (from input files) :     456.0000000000
  | Integrated number of electrons on 3D grid     :     456.0000476520
  | Charge integration error                      :       0.0000476520
  | Normalization factor for density and gradient :       0.9999998955
  Obtaining max. number of non-zero basis functions in each batch (get_n_compute_maxes).
  | Maximal number of non-zero basis functions:     1023 in task     0
  | Maximal number of non-zero basis functions:     1031 in task     1
  | Maximal number of non-zero basis functions:     1040 in task     2
  | Maximal number of non-zero basis functions:     1044 in task     3
  | Maximal number of non-zero basis functions:     1037 in task     4
  | Maximal number of non-zero basis functions:     1016 in task     5
  | Maximal number of non-zero basis functions:     1019 in task     6
  | Maximal number of non-zero basis functions:     1021 in task     7
  | Maximal number of non-zero basis functions:     1016 in task     8
  | Maximal number of non-zero basis functions:     1015 in task     9
  | Maximal number of non-zero basis functions:     1018 in task    10
  | Maximal number of non-zero basis functions:     1014 in task    11
  | Maximal number of non-zero basis functions:     1029 in task    12
  | Maximal number of non-zero basis functions:     1019 in task    13
  | Maximal number of non-zero basis functions:     1025 in task    14
  | Maximal number of non-zero basis functions:     1014 in task    15
  | Maximal number of non-zero basis functions:     1015 in task    16
  | Maximal number of non-zero basis functions:     1009 in task    17
  | Maximal number of non-zero basis functions:     1020 in task    18
  | Maximal number of non-zero basis functions:     1011 in task    19
  | Maximal number of non-zero basis functions:     1029 in task    20
  | Maximal number of non-zero basis functions:     1042 in task    21
  | Maximal number of non-zero basis functions:     1007 in task    22
  | Maximal number of non-zero basis functions:     1026 in task    23
  Allocating      619.349 MB for KS_eigenvector_complex
  Integrating Hamiltonian matrix: batch-based integration.
  Time summed over all CPUs for integration: real work       63.896 s, elapsed       64.828 s
  Integrating overlap matrix.
  Time summed over all CPUs for integration: real work       46.147 s, elapsed       46.984 s
  Decreasing sparse matrix size:
  | Tolerance:  0.1000E-12
  Hamiltonian matrix
  | Array has  1117726 nonzero elements out of  1292352 elements
  | Sparsity factor is 0.135
  Overlap matrix
  | Array has  1031090 nonzero elements out of  1292352 elements
  | Sparsity factor is 0.202
  New size of hamiltonian matrix:     1117803

  Updating Kohn-Sham eigenvalues and eigenvectors using ELSI and the (modified) LAPACK eigensolver.
  Singularity check in k-point 24, task 0 (analysis for other k-points/tasks may follow below):
  Overlap matrix is not singular
  | Lowest and highest eigenvalues :  0.5457E-03,  0.7249E+01
  Finished singularity check of overlap matrix
  | Time :     0.073 s
  Starting LAPACK eigensolver
  Finished Cholesky decomposition
  | Time :     0.020 s
  Finished transformation to standard eigenproblem
  | Time :     0.021 s
  Finished solving standard eigenproblem
  | Time :     0.071 s
  Finished back-transformation of eigenvectors
  | Time :     0.009 s

  Obtaining occupation numbers and chemical potential using ELSI.
  | Chemical potential (Fermi level):    -4.64109235 eV
  Writing Kohn-Sham eigenvalues.
  K-point:       1 at    0.000000    0.000000    0.000000 (in units of recip. lattice)

  State    Occupation    Eigenvalue [Ha]    Eigenvalue [eV]
      1       2.00000        -913.279532       -24851.60050
      2       2.00000        -913.279516       -24851.60007
      3       2.00000        -913.279513       -24851.59998
      4       2.00000        -913.279393       -24851.59672
      5       2.00000        -466.350395       -12690.03992
      6       2.00000        -466.350330       -12690.03815
      7       2.00000        -466.350277       -12690.03669
      8       2.00000        -466.350272       -12690.03657
      9       2.00000        -466.350266       -12690.03640
     10       2.00000        -466.350248       -12690.03591
     11       2.00000        -466.350218       -12690.03509
     12       2.00000        -466.350187       -12690.03424
     13       2.00000        -130.445116        -3549.59222
     14       2.00000        -130.445100        -3549.59178
     15       2.00000        -130.445097        -3549.59170
     16       2.00000        -130.444976        -3549.58840
     17       2.00000        -116.921525        -3181.59656
     18       2.00000        -116.921516        -3181.59632
     19       2.00000        -116.921509        -3181.59613
     20       2.00000        -116.921505        -3181.59603
     21       2.00000        -116.921500        -3181.59588
     22       2.00000        -116.921497        -3181.59580
     23       2.00000        -116.921461        -3181.59484
     24       2.00000        -116.921446        -3181.59441
     25       2.00000        -116.921442        -3181.59433
     26       2.00000        -116.921384        -3181.59274
     27       2.00000        -116.921376        -3181.59251
     28       2.00000        -116.921322        -3181.59105
     29       2.00000         -59.215611        -1611.33875
     30       2.00000         -59.215544        -1611.33695
     31       2.00000         -59.215490        -1611.33546
     32       2.00000         -59.215486        -1611.33536
     33       2.00000         -59.215479        -1611.33517
     34       2.00000         -59.215461        -1611.33467
     35       2.00000         -59.215430        -1611.33384
     36       2.00000         -59.215398        -1611.33298
     37       2.00000         -52.074126        -1417.00907
     38       2.00000         -52.074103        -1417.00844
     39       2.00000         -52.074061        -1417.00730
     40       2.00000         -52.074053        -1417.00707
     41       2.00000         -52.074036        -1417.00660
     42       2.00000         -52.074007        -1417.00582
     43       2.00000         -52.074001        -1417.00567
     44       2.00000         -52.073996        -1417.00552
     45       2.00000         -52.073987        -1417.00528
     46       2.00000         -52.073980        -1417.00510
     47       2.00000         -52.073979        -1417.00506
     48       2.00000         -52.073977        -1417.00502
     49       2.00000         -52.073970        -1417.00483
     50       2.00000         -52.073952        -1417.00433
     51       2.00000         -52.073946        -1417.00417
     52       2.00000         -52.073933        -1417.00382
     53       2.00000         -52.073929        -1417.00370
     54       2.00000         -52.073922        -1417.00352
     55       2.00000         -52.073922        -1417.00350
     56       2.00000         -52.073915        -1417.00331
     57       2.00000         -52.073904        -1417.00303
     58       2.00000         -52.073890        -1417.00264
     59       2.00000         -52.073874        -1417.00221
     60       2.00000         -52.073843        -1417.00135
     61       2.00000         -23.533312         -640.37401
     62       2.00000         -23.533295         -640.37355
     63       2.00000         -23.533292         -640.37346
     64       2.00000         -23.533163         -640.36995
     65       2.00000         -19.115108         -520.14857
     66       2.00000         -19.115092         -520.14811
     67       2.00000         -19.115085         -520.14793
     68       2.00000         -19.115020         -520.14617
     69       2.00000         -19.115002         -520.14567
     70       2.00000         -19.115002         -520.14566
     71       2.00000         -19.114956         -520.14440
     72       2.00000         -19.114869         -520.14205
     73       2.00000         -19.114483         -520.13154
     74       2.00000         -19.114467         -520.13112
     75       2.00000         -19.114464         -520.13103
     76       2.00000         -19.114339         -520.12763
     77       2.00000         -12.109916         -329.52757
     78       2.00000         -12.109898         -329.52708
     79       2.00000         -12.109894         -329.52699
     80       2.00000         -12.109880         -329.52660
     81       2.00000         -12.109862         -329.52612
     82       2.00000         -12.109859         -329.52602
     83       2.00000         -12.109763         -329.52342
     84       2.00000         -12.109728         -329.52246
     85       2.00000         -12.109533         -329.51717
     86       2.00000         -12.109518         -329.51674
     87       2.00000         -12.109512         -329.51659
     88       2.00000         -12.109477         -329.51563
     89       2.00000         -12.109460         -329.51517
     90       2.00000         -12.109459         -329.51514
     91       2.00000         -12.109393         -329.51336
     92       2.00000         -12.109386         -329.51316
     93       2.00000         -12.109377         -329.51293
     94       2.00000         -12.109374         -329.51284
     95       2.00000         -12.109331         -329.51166
     96       2.00000         -12.109248         -329.50942
     97       2.00000          -7.861932         -213.93406
     98       2.00000          -7.861854         -213.93192
     99       2.00000          -7.861794         -213.93029
    100       2.00000          -7.861792         -213.93025
    101       2.00000          -7.861781         -213.92995
    102       2.00000          -7.861760         -213.92938
    103       2.00000          -7.861726         -213.92846
    104       2.00000          -7.861691         -213.92750
    105       2.00000          -5.636338         -153.37257
    106       2.00000          -5.636272         -153.37078
    107       2.00000          -5.636209         -153.36905
    108       2.00000          -5.636195         -153.36866
    109       2.00000          -5.636191         -153.36857
    110       2.00000          -5.636170         -153.36799
    111       2.00000          -5.636128         -153.36684
    112       2.00000          -5.636096         -153.36596
    113       2.00000          -5.636095         -153.36595
    114       2.00000          -5.636004         -153.36347
    115       2.00000          -5.635940         -153.36172
    116       2.00000          -5.635929         -153.36144
    117       2.00000          -5.635915         -153.36106
    118       2.00000          -5.635901         -153.36068
    119       2.00000          -5.635839         -153.35898
    120       2.00000          -5.635812         -153.35826
    121       2.00000          -5.635416         -153.34747
    122       2.00000          -5.635339         -153.34538
    123       2.00000          -5.635288         -153.34400
    124       2.00000          -5.635283         -153.34385
    125       2.00000          -5.635273         -153.34358
    126       2.00000          -5.635256         -153.34311
    127       2.00000          -5.635227         -153.34234
    128       2.00000          -5.635192         -153.34136
    129       2.00000          -3.273983          -89.08962
    130       2.00000          -3.273959          -89.08896
    131       2.00000          -3.273954          -89.08882
    132       2.00000          -3.273766          -89.08370
    133       2.00000          -2.020302          -54.97522
    134       2.00000          -2.020280          -54.97460
    135       2.00000          -2.020227          -54.97318
    136       2.00000          -2.020008          -54.96721
    137       2.00000          -2.019287          -54.94760
    138       2.00000          -2.019280          -54.94741
    139       2.00000          -2.019229          -54.94602
    140       2.00000          -2.019010          -54.94005
    141       2.00000          -2.013050          -54.77788
    142       2.00000          -2.013040          -54.77761
    143       2.00000          -2.013034          -54.77744
    144       2.00000          -2.012868          -54.77292
    145       2.00000          -1.969356          -53.58890
    146       2.00000          -1.969240          -53.58575
    147       2.00000          -1.969164          -53.58368
    148       2.00000          -1.969137          -53.58295
    149       2.00000          -1.968280          -53.55962
    150       2.00000          -1.968204          -53.55755
    151       2.00000          -1.968127          -53.55546
    152       2.00000          -1.968107          -53.55492
    153       2.00000          -1.967818          -53.54705
    154       2.00000          -1.967784          -53.54613
    155       2.00000          -1.967708          -53.54406
    156       2.00000          -1.967698          -53.54379
    157       2.00000          -1.967693          -53.54365
    158       2.00000          -1.967644          -53.54231
    159       2.00000          -1.967565          -53.54018
    160       2.00000          -1.967556          -53.53992
    161       2.00000          -1.967401          -53.53570
    162       2.00000          -1.967362          -53.53464
    163       2.00000          -1.967350          -53.53432
    164       2.00000          -1.967304          -53.53306
    165       2.00000          -1.967291          -53.53271
    166       2.00000          -1.967283          -53.53250
    167       2.00000          -1.967265          -53.53200
    168       2.00000          -1.967241          -53.53136
    169       2.00000          -1.967241          -53.53134
    170       2.00000          -1.967225          -53.53090
    171       2.00000          -1.967219          -53.53075
    172       2.00000          -1.967208          -53.53046
    173       2.00000          -1.967169          -53.52939
    174       2.00000          -1.967162          -53.52920
    175       2.00000          -1.967149          -53.52884
    176       2.00000          -1.967122          -53.52811
    177       2.00000          -1.966728          -53.51740
    178       2.00000          -1.966681          -53.51612
    179       2.00000          -1.966619          -53.51442
    180       2.00000          -1.966607          -53.51409
    181       2.00000          -1.966373          -53.50774
    182       2.00000          -1.966334          -53.50667
    183       2.00000          -1.966268          -53.50487
    184       2.00000          -1.966262          -53.50472
    185       2.00000          -0.759572          -20.66901
    186       2.00000          -0.740830          -20.15902
    187       2.00000          -0.720606          -19.60868
    188       2.00000          -0.718845          -19.56077
    189       2.00000          -0.652593          -17.75795
    190       2.00000          -0.640667          -17.43344
    191       2.00000          -0.639267          -17.39534
    192       2.00000          -0.627530          -17.07596
    193       2.00000          -0.418476          -11.38732
    194       2.00000          -0.410697          -11.17564
    195       2.00000          -0.389392          -10.59590
    196       2.00000          -0.376447          -10.24365
    197       2.00000          -0.370681          -10.08675
    198       2.00000          -0.369218          -10.04694
    199       2.00000          -0.366734           -9.97934
    200       2.00000          -0.366178           -9.96422
    201       2.00000          -0.364757           -9.92553
    202       2.00000          -0.363033           -9.87864
    203       2.00000          -0.361254           -9.83022
    204       2.00000          -0.351804           -9.57306
    205       2.00000          -0.341752           -9.29956
    206       2.00000          -0.330794           -9.00138
    207       2.00000          -0.324432           -8.82825
    208       2.00000          -0.316402           -8.60975
    209       2.00000          -0.316251           -8.60563
    210       2.00000          -0.306257           -8.33368
    211       2.00000          -0.288645           -7.85444
    212       2.00000          -0.286393           -7.79315
    213       2.00000          -0.285239           -7.76175
    214       2.00000          -0.280073           -7.62117
    215       2.00000          -0.279112           -7.59502
    216       2.00000          -0.277251           -7.54437
    217       2.00000          -0.276241           -7.51691
    218       2.00000          -0.275715           -7.50258
    219       2.00000          -0.273693           -7.44756
    220       2.00000          -0.270346           -7.35649
    221       2.00000          -0.265362           -7.22087
    222       2.00000          -0.263616           -7.17336
    223       2.00000          -0.263328           -7.16552
    224       2.00000          -0.257756           -7.01390
    225       2.00000          -0.224355           -6.10501
    226       2.00000          -0.215301           -5.85864
    227       2.00000          -0.213040           -5.79711
    228       0.00000          -0.164999           -4.48986
    229       0.00000          -0.152221           -4.14214
    230       0.00000          -0.135271           -3.68091
    231       0.00000          -0.129934           -3.53570
    232       0.00000          -0.128578           -3.49878
    233       0.00000          -0.125713           -3.42083
    234       0.00000          -0.115509           -3.14315
    235       0.00000          -0.114824           -3.12453
    236       0.00000          -0.082002           -2.23138
    237       0.00000          -0.037427           -1.01845
    238       0.00000          -0.030362           -0.82619
    239       0.00000          -0.003112           -0.08469
    240       0.00000           0.021289            0.57930
    241       0.00000           0.025474            0.69317
    242       0.00000           0.026810            0.72955
    243       0.00000           0.057089            1.55347
    244       0.00000           0.089418            2.43320
    245       0.00000           0.102665            2.79365
    246       0.00000           0.111302            3.02867
    247       0.00000           0.118858            3.23429
    248       0.00000           0.122546            3.33465
    249       0.00000           0.125245            3.40809
    250       0.00000           0.125693            3.42027
    251       0.00000           0.137240            3.73449
    252       0.00000           0.151519            4.12305
    253       0.00000           0.160512            4.36776
    254       0.00000           0.171302            4.66136
    255       0.00000           0.176805            4.81111
    256       0.00000           0.189420            5.15437
    257       0.00000           0.191776            5.21849
    258       0.00000           0.198264            5.39503
    259       0.00000           0.219934            5.98471
    260       0.00000           0.231502            6.29950
    261       0.00000           0.247713            6.74062
    262       0.00000           0.257734            7.01330
    263       0.00000           0.267084            7.26772
    264       0.00000           0.280561            7.63446
    265       0.00000           0.280973            7.64565
[...]
  |                x                y                z                |
  |                                                                   |
  |  x        -0.00014108       0.00000123       0.00003941           |
  |  y         0.00000123       0.00001388      -0.00000427           |
  |  z         0.00003941      -0.00000427      -0.00005991           |
  |                                                                   |
  |  Pressure:       0.00006237   [eV/A**3]                           |
  |                                                                   |
  +-------------------------------------------------------------------+

 * Warning: Stress tensor is anisotropic. Be aware that pressure is an isotropic quantity.


  Leaving Libmbd.

  Timings for VdW correction (Tkatchenko-Scheffler 2009 or later):
  | CPU time:       58.832 s, Wall clock time:       58.837 s.
  Removing unitary transformations (pure translations, rotations) from forces on atoms.
  Atomic forces before filtering:
  | Net force on center of mass :  -0.548783E-05  0.830486E-04  0.376003E-04 eV/A
  Atomic forces after filtering:
  | Net force on center of mass :  -0.696899E-18 -0.139380E-17  0.000000E+00 eV/A

  Energy and forces in a compact form:
  | Total energy uncorrected      :         -0.108791111538770E+07 eV
  | Total energy corrected        :         -0.108791111643711E+07 eV  <-- do not rely on this value for anything but (periodic) metals
  | Electronic free energy        :         -0.108791111748652E+07 eV
  Total atomic forces (unitary forces cleaned) [eV/Ang]:
  |    1         -0.152917135838698E-03         -0.296665680294856E-02          0.128924955110798E-02
  |    2          0.206627067926765E-02          0.108683119062764E-03         -0.165182300423796E-03
  |    3         -0.143493277641454E-02         -0.195004609964916E-02          0.178849403826349E-02
  |    4         -0.404878336406559E-05         -0.645420489546879E-03         -0.102383378443369E-02
  |    5          0.874319930484034E-03         -0.728506349702807E-03         -0.240324828893987E-02
  |    6          0.309948408951122E-02          0.216155021407230E-02         -0.415971716117980E-02
  |    7         -0.290880077532335E-02          0.154737759949047E-02          0.267444842553470E-02
  |    8         -0.365641642026044E-02         -0.125642944986655E-02          0.307334016587678E-02
  |    9         -0.128389046237369E-02          0.142063919170820E-02          0.287918456179696E-02
  |   10         -0.613339915195135E-03          0.200900365692216E-02          0.204098016009800E-02
  |   11          0.107901960539804E-02         -0.185843317181458E-02         -0.182460733493432E-02
  |   12          0.293525196410898E-02          0.215823858227265E-02         -0.416910803276642E-02

  ------------------------------------ 
  Start decomposition of the XC Energy 
  ------------------------------------ 
  X and C from original XC functional choice 
  Hartree-Fock Energy :          0.000000000 Ha              0.000000000 eV
  X Energy            :      -1261.088444763 Ha         -34315.962558947 eV
  C Energy            :        -23.236998742 Ha           -632.310907384 eV
  Total XC Energy     :      -1284.325443504 Ha         -34948.273466331 eV
  ------------------------------------ 
  LDA X and C from self-consistent density 
  X Energy LDA        :      -1197.518453099 Ha         -32586.135073134 eV
  C Energy LDA        :        -42.068254133 Ha          -1144.735438470 eV
  ------------------------------------ 
  End decomposition of the XC Energy 
  ------------------------------------ 

------------------------------------------------------------
  Relaxation / MD: End force evaluation.       :  max(cpu_time)    wall_clock(cpu1)
  | Time for this force evaluation             :     1095.776 s        1096.338 s

------------------------------------------------------------
  Geometry optimization: Attempting to predict improved coordinates.

  +-------------------------------------------------------------------+
  | Generalized derivatives on lattice vectors [eV/A]                 |
  +-------------------------------------------------------------------+
  |lattice_vector      -0.00630872       0.00005522       0.00176254  |
  |lattice_vector       0.00005421       0.00060949      -0.00018743  |
  |lattice_vector       0.00137166      -0.00014856      -0.00208481  |
  +-------------------------------------------------------------------+
  | Forces on lattice vectors cleaned from atomic contributions [eV/A]|
  +-------------------------------------------------------------------+
  |lattice_vector       0.00630872      -0.00005522      -0.00176254  |
  |lattice_vector      -0.00005421      -0.00060949       0.00018743  |
  |lattice_vector      -0.00137166       0.00014856       0.00208481  |
  +-------------------------------------------------------------------+
  Symmetrized total atomic cartesian forces [eV/Ang]:
  |   1    -0.1529171358E-03    -0.2966656803E-02     0.1289249551E-02
  |   2     0.2066270679E-02     0.1086831191E-03    -0.1651823004E-03
  |   3    -0.1434932776E-02    -0.1950046100E-02     0.1788494038E-02
  |   4    -0.4048783364E-05    -0.6454204895E-03    -0.1023833784E-02
  |   5     0.8743199305E-03    -0.7285063497E-03    -0.2403248289E-02
  |   6     0.3099484090E-02     0.2161550214E-02    -0.4159717161E-02
  |   7    -0.2908800775E-02     0.1547377599E-02     0.2674448426E-02
  |   8    -0.3656416420E-02    -0.1256429450E-02     0.3073340166E-02
  |   9    -0.1283890462E-02     0.1420639192E-02     0.2879184562E-02
  |  10    -0.6133399152E-03     0.2009003657E-02     0.2040980160E-02
  |  11     0.1079019605E-02    -0.1858433172E-02    -0.1824607335E-02
  |  12     0.2935251964E-02     0.2158238582E-02    -0.4169108033E-02
  +-------------------------------------------------------------------+
  | Symmetrized forces on lattice vectors cleaned from symmetrized
  | atomic contributions [eV/A]|
  +-------------------------------------------------------------------+
  |lattice_vector       0.00630872       0.00000000       0.00000000  |
  |lattice_vector       0.00000000      -0.00060949       0.00000000  |
  |lattice_vector       0.00000000       0.00000000       0.00208481  |
  +-------------------------------------------------------------------+
  Removing unitary transformations (pure translations, rotations) from forces on atoms.
  Atomic forces before filtering:
  | Net force on center of mass :  -0.696899E-18 -0.696899E-18  0.000000E+00 eV/A
  Atomic forces after filtering:
  | Net force on center of mass :  -0.696899E-18 -0.696899E-18  0.000000E+00 eV/A
  Net remaining forces (excluding translations, rotations) in present geometry:
  || Forces on atoms   || =   0.416911E-02 eV/A.
  || Forces on lattice || =   0.630872E-02 eV/A^3.
  Maximum force component is  0.630872E-02 eV/A.
  Present geometry is converged.

  Symmetry-reduced parameters:
  | atomic   1          0.502133612378498E+00
  | atomic   2          0.219617454791833E-02
  | atomic   3          0.210091389655620E-02
  | atomic   4          0.211941492456982E-02
  | atomic   5          0.217578978656016E-02
  | atomic   6          0.502241716753392E+00
  | atomic   7          0.224514273660104E-02
  | atomic   8          0.502149702741336E+00
  | atomic   9          0.206831134567127E-02
  | atomic  10          0.502213514229766E+00
  | atomic  11          0.502186804896637E+00
  | atomic  12          0.502260090435284E+00
  | atomic  13          0.614294613204236E+00
  | atomic  14          0.120560517408444E+00
  | atomic  15          0.405476190961470E+00
  | atomic  16          0.889951995347285E+00
  | atomic  17          0.883767204980297E+00
  | atomic  18          0.905453037121874E+00
  | atomic  19          0.114371953006420E+00
  | atomic  20          0.383814748624803E+00
  | atomic  21          0.598907934721580E+00
  | atomic  22          0.390094945971670E+00
  | atomic  23          0.620558090917916E+00
  | atomic  24          0.988661302950858E-01
  | atomic  25          0.390026405418752E+00
  | atomic  26          0.883825874685901E+00
  | atomic  27          0.598917524510720E+00
  | atomic  28          0.114302914603968E+00
  | atomic  29          0.120482085656396E+00
  | atomic  30          0.988663643191056E-01
  | atomic  31          0.890020754775676E+00
  | atomic  32          0.620562626274366E+00
  | atomic  33          0.405481824413374E+00
  | atomic  34          0.614305404197552E+00
  | atomic  35          0.383801044453908E+00
  | atomic  36          0.905440599035693E+00
  | lattice  1          0.584530861583947E+01
  | lattice  2          0.595358318439104E+01
  | lattice  3          0.751104777569240E+01
  Symmetry-reduced forces:
  | atomic   1         -0.893847851627434E-03
  | atomic   2         -0.176622380558938E-01
  | atomic   3          0.968361497316199E-02
  | atomic   4          0.120779898041797E-01
  | atomic   5          0.647053990079241E-03
  | atomic   6         -0.124069215018191E-02
  | atomic   7         -0.838762492112638E-02
  | atomic   8         -0.116097616676586E-01
  | atomic   9          0.134334641679381E-01
  | atomic  10         -0.236663882816404E-04
  | atomic  11         -0.384256457342773E-02
  | atomic  12         -0.769006446924940E-02
  | atomic  13          0.511066982265849E-02
  | atomic  14         -0.433722315331273E-02
  | atomic  15         -0.180509127150784E-01
  | atomic  16          0.181174410530773E-01
  | atomic  17          0.128689690067177E-01
  | atomic  18         -0.312438343309890E-01
  | atomic  19         -0.170028382337581E-01
  | atomic  20          0.921244125622982E-02
  | atomic  21          0.200879098978164E-01
  | atomic  22         -0.213728824044453E-01
  | atomic  23         -0.748025724509921E-02
  | atomic  24          0.230840048168549E-01
  | atomic  25         -0.750473598150704E-02
  | atomic  26          0.845789360284081E-02
  | atomic  27          0.216256927986929E-01
  | atomic  28         -0.358516109072837E-02
  | atomic  29          0.119607703892319E-01
  | atomic  30          0.153298994917364E-01
  | atomic  31          0.630720259609285E-02
  | atomic  32         -0.110643364810298E-01
  | atomic  33         -0.137047128645705E-01
  | atomic  34          0.171574535954659E-01
  | atomic  35          0.128492529313224E-01
  | atomic  36         -0.313143696161315E-01
  | lattice  1          0.630872336949062E-02
  | lattice  2         -0.609488729448374E-03
  | lattice  3          0.208480798954484E-02
------------------------------------------------------------
  Final atomic structure:
                         x [A]             y [A]             z [A]
  lattice_vector         5.84530862        0.00000000        0.00000000
  lattice_vector         0.00000000        5.95358318        0.00000000
  lattice_vector         0.00000000        0.00000000        7.51104778

            atom        -2.91018269        0.01307511        0.01578006  Pd
            atom         0.01238863        0.01295375       -3.73868625  Pd
            atom         0.01312355       -2.96399316        0.01553519  Pd
            atom        -2.90971563       -2.96377227       -3.73854824  Pd
            atom        -2.25456702        0.71776707        3.04555104  Se
            atom        -0.64326455       -0.69200161       -0.71014676  Se
            atom         0.66853936        2.28507303       -3.01262166  Se
            atom         2.28022535       -2.25903897        0.74258823  Se
            atom         2.27982471       -0.69165232       -3.01254964  Se
            atom         0.66813581        0.71730012        0.74258999  Se
            atom        -0.64286263       -2.25901197        3.04559336  Se
            atom        -2.25450394        2.28499144       -0.71024018  Se

  Fractional coordinates:
                         L1                L2                L3
       atom_frac        -0.49786639        0.00219617        0.00210091  Pd
       atom_frac         0.00211941        0.00217579       -0.49775828  Pd
       atom_frac         0.00224514       -0.49785030        0.00206831  Pd
       atom_frac        -0.49778649       -0.49781320       -0.49773991  Pd
       atom_frac        -0.38570539        0.12056052        0.40547619  Se
       atom_frac        -0.11004800       -0.11623280       -0.09454696  Se
       atom_frac         0.11437195        0.38381475       -0.40109207  Se
       atom_frac         0.39009495       -0.37944191        0.09886613  Se
       atom_frac         0.39002641       -0.11617413       -0.40108248  Se
       atom_frac         0.11430291        0.12048209        0.09886636  Se
       atom_frac        -0.10997925       -0.37943737        0.40548182  Se
       atom_frac        -0.38569460        0.38380104       -0.09455940  Se
------------------------------------------------------------

------------------------------------------------------------------------------
  Final output of selected total energy values:

  The following output summarizes some interesting total energy values
  at the end of a run (AFTER all relaxation, molecular dynamics, etc.).

  | Total energy of the DFT / Hartree-Fock s.c.f. calculation      :       -1087911.115387705 eV
  | Final zero-broadening corrected energy (caution - metals only) :       -1087911.116437113 eV
  | For reference only, the value of 1 Hartree used in FHI-aims is :             27.211384500 eV
  | For reference only, the overall average (free atom contribution
  | + realspace contribution) of the electrostatic potential after
  | s.c.f. convergence is                                          :            -16.950821822 eV

  Before relying on these values, please be sure to understand exactly which
  total energy value is referred to by a given number. Different objects may
  all carry the same name 'total energy'. Definitions:

  Total energy of the DFT / Hartree-Fock s.c.f. calculation:
  | Note that this energy does not include ANY quantities calculated after the
  | s.c.f. cycle, in particular not ANY RPA, MP2, etc. many-body perturbation terms.

  Final zero-broadening corrected energy:
  | For metallic systems only, a broadening of the occupation numbers at the Fermi
  | level can be extrapolated back to zero broadening by an electron-gas inspired
  | formula. For all systems that are not real metals, this value can be
  | meaningless and should be avoided.

------------------------------------------------------------------------------
  Methods described in the following list of references were used in this FHI-aims run.
  If you publish the results, please make sure to cite these reference if they apply.
  FHI-aims is an academic code, and for our developers (often, Ph.D. students
  and postdocs), scientific credit in the community is essential.
  Thank you for helping us!

  For any use of FHI-aims, please cite:

    Volker Blum, Ralf Gehrke, Felix Hanke, Paula Havu, Ville Havu,
    Xinguo Ren, Karsten Reuter, and Matthias Scheffler
    'Ab initio molecular simulations with numeric atom-centered orbitals'
    Computer Physics Communications 180, 2175-2196 (2009)
    http://dx.doi.org/10.1016/j.cpc.2009.06.022


  For the analytical stress tensor used in your run, please cite:

    Franz Knuth, Christian Carbogno, Viktor Atalla, Volker Blum, Matthias Scheffler
    'All-electron formalism for total energy strain derivatives and
    stress tensor components for numeric atom-centered orbitals'
    Computer Physics Communications 190, 33-50 (2015).
    http://dx.doi.org/10.1016/j.cpc.2015.01.003


  The provided symmetry information was generated with SPGlib:

    Atsushi Togo, Yusuke Seto, Dimitar Pashov
    SPGlib 1.7.3 obtained from http://spglib.sourceforge.net
    Copyright (C) 2008 Atsushi Togo


  The ELSI infrastructure was used in your run to solve the Kohn-Sham electronic structure.
  Please check out http://elsi-interchange.org to learn more.
  If scalability is important for your project, please acknowledge ELSI by citing:

    V. W-z. Yu, F. Corsetti, A. Garcia, W. P. Huhn, M. Jacquelin, W. Jia,
    B. Lange, L. Lin, J. Lu, W. Mi, A. Seifitokaldani, A. Vazquez-Mayagoitia,
    C. Yang, H. Yang, and V. Blum
    'ELSI: A unified software interface for Kohn-Sham electronic structure solvers'
    Computer Physics Communications 222, 267-285 (2018).
    http://dx.doi.org/10.1016/j.cpc.2017.09.007


  For the real-space grid partitioning and parallelization used in this calculation, please cite:

    Ville Havu, Volker Blum, Paula Havu, and Matthias Scheffler,
    'Efficient O(N) integration for all-electron electronic structure calculation'
    'using numerically tabulated basis functions'
    Journal of Computational Physics 228, 8367-8379 (2009).
    http://dx.doi.org/10.1016/j.jcp.2009.08.008

  Of course, there are many other important community references, e.g., those cited in the
  above references. Our list is limited to references that describe implementations in the
  FHI-aims code. The reason is purely practical (length of this list) - please credit others as well.

------------------------------------------------------------
          Leaving FHI-aims.
          Date     :  20200420, Time     :  225826.772

          Computational steps:
          | Number of self-consistency cycles          :          109
          | Number of SCF (re)initializations          :            5
          | Number of relaxation steps                 :            4

          Detailed time accounting                     :  max(cpu_time)    wall_clock(cpu1)
          | Total time                                 :     7521.899 s        7524.953 s
          | Preparation time                           :        0.558 s           0.698 s
          | Boundary condition initalization           :        1.009 s           1.010 s
          | Grid partitioning                          :        1.718 s           1.720 s
          | Preloading free-atom quantities on grid    :        4.837 s           4.839 s
          | Free-atom superposition energy             :        0.712 s           0.710 s
          | Total time for integrations                :      309.065 s         309.073 s
          | Total time for solution of K.-S. equations :     4616.225 s        4622.607 s
          | Total time for EV reorthonormalization     :       55.019 s          54.685 s
          | Total time for density & force components  :     1893.844 s        1893.996 s
          | Total time for mixing & preconditioning    :       78.770 s          78.831 s
          | Total time for Hartree multipole update    :        0.484 s           0.503 s
          | Total time for Hartree multipole sum       :      246.030 s         246.035 s
          | Total time for total energy evaluation     :        6.867 s           7.694 s
          | Total time for scaled ZORA corrections     :        0.000 s           0.000 s
          | Total time for vdW correction              :      294.861 s         294.894 s

          Partial memory accounting:
          | Residual value for overall tracked memory usage across tasks:     0.000000 MB (should be 0.000000 MB)
          | Peak values for overall tracked memory usage:
          |   Minimum:     1286.059 MB (on task 21 after allocating d_wave)
          |   Maximum:     1291.140 MB (on task 13 after allocating d_wave)
          |   Average:     1289.728 MB
          | Largest tracked array allocation:
          |   Minimum:      619.349 MB (KS_eigenvector_complex on task  0)
          |   Maximum:      621.448 MB (KS_eigenvector_complex on task  1)
          |   Average:      621.098 MB
          Note:  These values currently only include a subset of arrays which are explicitly tracked.
          The "true" memory usage will be greater.

          Have a nice day.
------------------------------------------------------------
