------------------------------------------------------------
          Invoking FHI-aims ...

          When using FHI-aims, please cite the following reference:

          Volker Blum, Ralf Gehrke, Felix Hanke, Paula Havu,
          Ville Havu, Xinguo Ren, Karsten Reuter, and Matthias Scheffler,
          'Ab Initio Molecular Simulations with Numeric Atom-Centered Orbitals',
          Computer Physics Communications 180, 2175-2196 (2009)

          For any questions about FHI-aims, please visit the aimsclub website
          with its forums and wiki. Contributions to both the forums and the
          wiki are warmly encouraged - they are for you, and everyone is welcome there.

------------------------------------------------------------



  Date     :  20200420, Time     :  204645.782
  Time zero on CPU 1             :   0.116610000000000E+00  s.
  Internal wall clock time zero  :           356647605.782  s.

  FHI-aims created a unique identifier for this run for later identification
  aims_uuid : 08037296-3FD1-4E99-AF31-C5168DEA9506

  Build configuration of the current instance of FHI-aims
  -------------------------------------------------------
  FHI-aims version      : 200112
  Commit number         : 23daeca3f
  CMake host system     : Linux-3.10.0-693.21.1.el7.x86_64
  CMake version         : 3.13.3
  Fortran compiler      : /sw/installed/impi/2018.4.274-iccifort-2019.1.144-GCC-8.2.0-2.31.1/bin64/mpiifort (Intel) version 19.0.0.20181018
  Fortran compiler flags: -O3 -ip -fp-model precise
  C compiler            : /sw/installed/impi/2018.4.274-iccifort-2019.1.144-GCC-8.2.0-2.31.1/bin64/mpiicc (Intel) version 19.0.0.20181018
  C compiler flags      : -O3 -ip -fp-model precise
  Architecture          :
  Using MPI
  Using Scalapack
  Using C files
  Using LibXC
  Using SPGlib
  Using i-PI
  Using RLSY
  Linking against: /sw/installed/imkl/2019.1.144-iimpi-2019a/mkl/lib/intel64/libmkl_intel_lp64.so
                   /sw/installed/imkl/2019.1.144-iimpi-2019a/mkl/lib/intel64/libmkl_sequential.so
                   /sw/installed/imkl/2019.1.144-iimpi-2019a/mkl/lib/intel64/libmkl_core.so
                   /sw/installed/imkl/2019.1.144-iimpi-2019a/mkl/lib/intel64/libmkl_blacs_intelmpi_lp64.so
                   /sw/installed/imkl/2019.1.144-iimpi-2019a/mkl/lib/intel64/libmkl_scalapack_lp64.so

  Using       24 parallel tasks.
  Task        0 on host taurusi6391.taurus.hrsk.tu-dresden.de reporting.
  Task        1 on host taurusi6391.taurus.hrsk.tu-dresden.de reporting.
  Task        2 on host taurusi6391.taurus.hrsk.tu-dresden.de reporting.
  Task        3 on host taurusi6391.taurus.hrsk.tu-dresden.de reporting.
  Task        4 on host taurusi6391.taurus.hrsk.tu-dresden.de reporting.
  Task        5 on host taurusi6391.taurus.hrsk.tu-dresden.de reporting.
  Task        6 on host taurusi6391.taurus.hrsk.tu-dresden.de reporting.
  Task        7 on host taurusi6391.taurus.hrsk.tu-dresden.de reporting.
  Task        8 on host taurusi6391.taurus.hrsk.tu-dresden.de reporting.
  Task        9 on host taurusi6391.taurus.hrsk.tu-dresden.de reporting.
  Task       10 on host taurusi6391.taurus.hrsk.tu-dresden.de reporting.
  Task       11 on host taurusi6391.taurus.hrsk.tu-dresden.de reporting.
  Task       12 on host taurusi6391.taurus.hrsk.tu-dresden.de reporting.
  Task       13 on host taurusi6391.taurus.hrsk.tu-dresden.de reporting.
  Task       14 on host taurusi6391.taurus.hrsk.tu-dresden.de reporting.
  Task       15 on host taurusi6391.taurus.hrsk.tu-dresden.de reporting.
  Task       16 on host taurusi6391.taurus.hrsk.tu-dresden.de reporting.
  Task       17 on host taurusi6391.taurus.hrsk.tu-dresden.de reporting.
  Task       18 on host taurusi6391.taurus.hrsk.tu-dresden.de reporting.
  Task       19 on host taurusi6391.taurus.hrsk.tu-dresden.de reporting.
  Task       20 on host taurusi6391.taurus.hrsk.tu-dresden.de reporting.
  Task       21 on host taurusi6391.taurus.hrsk.tu-dresden.de reporting.
  Task       22 on host taurusi6391.taurus.hrsk.tu-dresden.de reporting.
  Task       23 on host taurusi6391.taurus.hrsk.tu-dresden.de reporting.

  Performing system and environment tests:
  | Environment variable OMP_NUM_THREADS correctly set to 1.
  | Maximum stacksize for task 0: unlimited
  | Maximum stacksize for task 1: unlimited
  | Maximum stacksize for task 2: unlimited
  | Maximum stacksize for task 3: unlimited
  | Maximum stacksize for task 4: unlimited
  | Maximum stacksize for task 5: unlimited
  | Maximum stacksize for task 6: unlimited
  | Maximum stacksize for task 7: unlimited
  | Maximum stacksize for task 8: unlimited
  | Maximum stacksize for task 9: unlimited
  | Maximum stacksize for task 10: unlimited
  | Maximum stacksize for task 11: unlimited
  | Maximum stacksize for task 12: unlimited
  | Maximum stacksize for task 13: unlimited
  | Maximum stacksize for task 14: unlimited
  | Maximum stacksize for task 15: unlimited
  | Maximum stacksize for task 16: unlimited
  | Maximum stacksize for task 17: unlimited
  | Maximum stacksize for task 18: unlimited
  | Maximum stacksize for task 19: unlimited
  | Maximum stacksize for task 20: unlimited
  | Maximum stacksize for task 21: unlimited
  | Maximum stacksize for task 22: unlimited
  | Maximum stacksize for task 23: unlimited
  | Current stacksize for task 0: unlimited
  | Current stacksize for task 1: unlimited
  | Current stacksize for task 2: unlimited
  | Current stacksize for task 3: unlimited
  | Current stacksize for task 4: unlimited
  | Current stacksize for task 5: unlimited
  | Current stacksize for task 6: unlimited
  | Current stacksize for task 7: unlimited
  | Current stacksize for task 8: unlimited
  | Current stacksize for task 9: unlimited
  | Current stacksize for task 10: unlimited
  | Current stacksize for task 11: unlimited
  | Current stacksize for task 12: unlimited
  | Current stacksize for task 13: unlimited
  | Current stacksize for task 14: unlimited
  | Current stacksize for task 15: unlimited
  | Current stacksize for task 16: unlimited
  | Current stacksize for task 17: unlimited
  | Current stacksize for task 18: unlimited
  | Current stacksize for task 19: unlimited
  | Current stacksize for task 20: unlimited
  | Current stacksize for task 21: unlimited
  | Current stacksize for task 22: unlimited
  | Current stacksize for task 23: unlimited
  | Checking for scalapack...
  | Testing pdtran()...
  | All pdtran() tests passed.

  Obtaining array dimensions for all initial allocations:
  
  -----------------------------------------------------------------------
  Parsing control.in (first pass over file, find array dimensions only).
  The contents of control.in will be repeated verbatim below
  unless switched off by setting 'verbatim_writeout .false.' .
  in the first line of control.in .
  -----------------------------------------------------------------------
  
  #===============================================================================
  # FHI-aims file: ./control.in
  # Created using the Atomic Simulation Environment (ASE)
  # Thu Apr  2 11:27:09 2020
  #===============================================================================
  xc                                 pbe
  # include_spin_orbit
  # vdw_correction_hirshfeld
  many_body_dispersion
  spin                               none
  k_grid 	 	 22 22 18
  relativistic                       atomic_zora scalar
  energy_tolerance 1e-2
  harmonic_length_scale  0.015
  ### SCF settings
  adjust_scf 	 always 	 3
  # frozen_core_scf 	 .true.
  # charge_mix_param  0.05
  # occupation_type 	 gaussian 	 0.01
  # sc_accuracy_eev   1E-3 	 	 # sum of eigenvalues convergence
  # sc_accuracy_etot  1E-6 	 	 # total energy convergence
  # sc_accuracy_rho   1E-3 	 	 # electron density convergence
  # elsi_restart 	 read_and_write 	 1000
  ### geometry optimisation section
  relax_geometry 	 bfgs 	 1E-2
  relax_unit_cell 	 full
  #===============================================================================
  
  ################################################################################
  #
  #  FHI-aims code project
  # Volker Blum, Fritz Haber Institute Berlin, 2009
  #
  #  Suggested "tight" defaults for Pd atom (to be pasted into control.in file)
  #
  ################################################################################
    species        Pd
  #     global species definitions
      nucleus             46
      mass                106.42
  #
      l_hartree           6
  #
      cut_pot             4.0  2.0  1.0
      basis_dep_cutoff    1e-4
  #
      radial_base         62 7.0
      radial_multiplier   2
      angular_grids specified
        division   0.3627   50
        division   0.7349  110
        division   1.0624  194
        division   1.2496  302
        division   1.6740  434
  #      division   2.0126  590
  #      division   2.0830  770
  #      division   2.7936 1202
  #       outer_grid  974
        outer_grid  434
  ################################################################################
  #
  #  Definition of "minimal" basis
  #
  ################################################################################
  #     valence basis states
      valence      5  s   1.
      valence      4  p   6.
      valence      4  d   9.
  #     ion occupancy
      ion_occ     5  s   0.
      ion_occ     4  p   6.
      ion_occ     4  d   8.
  ################################################################################
  #
  #  Suggested additional basis functions. For production calculations,
  #  uncomment them one after another (the most important basis functions are
  #  listed first).
  #
  #  Constructed for dimers: 2.0 A, 2.275 A, 2.75 A, 3.75 A
  #
  ################################################################################
  #  "First tier" - max. impr. -120.76  meV, min. impr. -5.71 meV
       ionic 5 p auto
       hydro 4 f 8
       hydro 5 g 10
       hydro 3 s 2.6
       hydro 3 d 2.5
  #  "Second tier" - max. impr. -5.00  meV, min. impr. -0.62 meV
  #     hydro 5 f 17.2
  #     hydro 6 h 14
  #     hydro 4 d 4
  #     hydro 5 f 7.6
  #     hydro 3 p 3.3
  #     hydro 4 s 9.4
  #  "Third tier" - max. impr. -0.54  meV, min. impr. -0.14 meV
  #     hydro 4 f 20
  #     hydro 5 g 12.8
  #     hydro 5 d 9.8
  #     hydro 6 h 15.2
  #     hydro 5 s 10
  #     hydro 6 p 9.8
  #  "Fourth tier" - max. impr. -0.15  meV, min. impr. -0.05 meV
  #     hydro 5 f 9.2
  #     hydro 2 s 5.6
  #     hydro 5 f 43.2
  #     hydro 5 d 13.2
  #     hydro 5 g 14
  #     hydro 4 p 4.7
  ################################################################################
  #
  #  FHI-aims code project
  # Volker Blum, Fritz Haber Institute Berlin, 2009
  #
  #  Suggested "tight" defaults for Se atom (to be pasted into control.in file)
  #
  ################################################################################
    species        Se
  #     global species definitions
      nucleus             34
      mass                78.96
  #
      l_hartree           6
  #
      cut_pot             4.0          2.0  1.0
      basis_dep_cutoff    1e-4
  #
      radial_base         55 7.0
      radial_multiplier   2
      angular_grids       specified
        division   0.0830  110
        division   0.1357  194
        division   0.7377  302
        division   0.8610  434
  #      division   0.9640  590
  #      division   1.0773  770
  #      division   2.5539  974
  #      outer_grid  974
        outer_grid  434
  ################################################################################
  #
  #  Definition of "minimal" basis
  #
  ################################################################################
  #     valence basis states
      valence      4  s   2.
      valence      4  p   4.
      valence      3  d  10.
  #     ion occupancy
      ion_occ      4  s   1.
      ion_occ      4  p   3.
      ion_occ      3  d  10.
  ################################################################################
  #
  #  Suggested additional basis functions. For production calculations,
  #  uncomment them one after another (the most important basis functions are
  #  listed first).
  #
  #  Constructed for dimers: 1.85 A, 2.15 A, 2.50 A, 3.00 A, 4.00 A
  #
  ################################################################################
  #  "First tier" - improvements: -336.21 meV to -36.85 meV
       hydro 3 d 4.3
       hydro 2 p 1.6
       hydro 4 f 7.2
       ionic 4 s auto
  #  "Second tier" - improvements: -14.39 meV to -1.49 meV
  #     hydro 5 g 10.4
  #     hydro 4 p 4.5
  #     hydro 4 d 6.2
  #     hydro 4 f 11.2
  #     hydro 1 s 0.65
  #     hydro 6 h 15.2
  #  "Third tier" - improvements: -0.46 meV and below
  #     hydro 5 g 14.4
  #     ionic 4 d auto
  #     hydro 4 f 22.4
  #     hydro 5 f 7.4
  #     hydro 5 p 8
  #     hydro 5 s 9.4
  #  "Fourth tier" - improvements: -0.12 meV and below
  #     hydro 5 d 11.6
  #     hydro 6 h 18
  #     hydro 4 p 4
  #     hydro 5 f 16
  #     hydro 4 s 3.9
  #
  #
  
  -----------------------------------------------------------------------
  Completed first pass over input file control.in .
  -----------------------------------------------------------------------
  
  
  -----------------------------------------------------------------------
  Parsing geometry.in (first pass over file, find array dimensions only).
  The contents of geometry.in will be repeated verbatim below
  unless switched off by setting 'verbatim_writeout .false.' .
  in the first line of geometry.in .
  -----------------------------------------------------------------------
  
  #
  # This is the geometry file that corresponds to the current relaxation step.
  # If you do not want this file to be written, set the "write_restart_geometry" flag to .false.
  #  aims_uuid : 0F5268C3-35F8-4E18-A365-4B23C75442A1
  #
  lattice_vector      5.85480682      0.00000000      0.00000000
  lattice_vector      0.00000000      5.95910471      0.00000000
  lattice_vector      0.00000000      0.00000000      7.43174746
  atom_frac       0.50242419      0.00208237      0.00192343 Pd
  atom_frac       0.00206939      0.00208627      0.50265875 Pd
  atom_frac       0.00215189      0.50245261      0.00196948 Pd
  atom_frac       0.50250619      0.50245612      0.50261261 Pd
  atom_frac       0.61429741      0.12007474      0.40432475 Se
  atom_frac       0.89104022      0.88488602      0.90453619 Se
  atom_frac       0.11391010      0.38454617      0.60074851 Se
  atom_frac       0.39062591      0.62041167      0.10025271 Se
  atom_frac       0.39066955      0.88491067      0.60074865 Se
  atom_frac       0.11394235      0.12008227      0.10027088 Se
  atom_frac       0.89101014      0.62041023      0.40432654 Se
  atom_frac       0.61427850      0.38452673      0.90455337 Se
  #
  # What follows is the current estimated Hessian matrix constructed by the BFGS algorithm.
  # This is NOT the true Hessian matrix of the system.
  # If you do not want this information here, switch it off using the "hessian_to_restart_geometry" keyword.
  #
  trust_radius             0.0122098548
  hessian_block                1       1           5.960181           0.056441          -2.201603           0.056441           6.38811
  hessian_block                1       2          -0.036797           0.457005           0.036918           0.303883           0.24437
  hessian_block                1       3          -0.064060           0.508973           0.032107          -0.050074          -0.14404
  hessian_block                1       4           0.510000           0.197234          -0.086716           0.114444          -0.43910
  hessian_block                1       5          -0.033270          -0.437347          -0.192122          -0.357173           0.29858
  hessian_block                1       6          -1.766674          -0.045539           0.598493           0.433749          -0.43660
  hessian_block                1       7          -0.374791           0.325272           0.269503           0.109086           0.17493
  hessian_block                1       8          -0.209167          -0.516478           0.337230          -0.349558          -1.89697
  hessian_block                1       9          -0.136042           0.025549           0.190688          -0.397489          -0.45079
  hessian_block                1      10          -2.311858           0.867289           1.067826           0.053948          -0.39721
  hessian_block                1      11           0.073491          -0.569399          -0.223213           0.231466           0.18853
  hessian_block                1      12          -0.045102          -0.869000           0.170888          -0.148723          -1.88278
  hessian_block                2       2           6.044133           0.344756           2.319572           0.344756           7.25350
  hessian_block                2       3           0.862911           0.853255           0.468921          -0.442421          -0.49072
  hessian_block                2       4           0.205350           0.626731           0.181387          -0.474956           0.63096
  hessian_block                2       5          -2.089842           0.027470          -0.989233           0.462370          -0.66817
  hessian_block                2       6          -0.502220          -0.104026           0.091631          -0.279600          -0.87788
  hessian_block                2       7          -0.020493          -0.682095          -0.374026          -0.442176          -1.57302
  hessian_block                2       8          -0.234378          -0.577606          -0.321422           0.080446          -0.41303
  hessian_block                2       9          -2.023513           0.381786          -0.957747           0.598696          -0.82091
  hessian_block                2      10           0.490943          -0.118855           0.018698           0.227751           0.91649
  hessian_block                2      11          -0.552165          -0.692789          -0.182100          -0.488915          -3.20459
  hessian_block                2      12          -0.578016          -0.362509          -0.224402          -0.042957           0.65003
  hessian_block                3       3           6.554692          -0.555575           2.401586          -0.555575           6.30278
  hessian_block                3       4           0.342476          -0.277462          -0.042426          -0.253992           0.12381
  hessian_block                3       5          -0.595615           0.156168          -0.309351          -0.230097           0.44043
  hessian_block                3       6          -0.719877           0.477081          -0.498022          -0.022352          -1.75900
  hessian_block                3       7           0.074858           0.120356           0.212518           0.205513          -0.12232
  hessian_block                3       8          -2.177676          -0.199179          -0.852792          -0.701973          -0.30754
  hessian_block                3       9          -0.278747           0.343215           0.136448          -0.020201          -0.18860
  hessian_block                3      10           0.468290           0.510194           0.175843           1.164554          -2.18640
  hessian_block                3      11          -0.408215           0.103331          -0.171945          -0.565733           0.25367
  hessian_block                3      12          -2.493127          -0.185634          -1.051499          -0.382376          -0.27503
  hessian_block                4       4           5.953666           0.178452          -1.955836           0.178452           6.94909
  hessian_block                4       5          -0.487188           0.618507           0.204950           0.087530          -2.23616
  hessian_block                4       6          -0.023346           0.426385           0.119560          -0.235551          -0.43608
  hessian_block                4       7          -2.016411          -0.898647           0.698696          -0.187735          -0.17629
  hessian_block                4       8          -0.290619          -0.220560          -0.182417           0.031345          -0.51467
  hessian_block                4       9          -0.276079           0.646832           0.146890           0.137121          -2.23587
  hessian_block                4      10          -0.429709          -0.405469          -0.158670          -0.144975           0.81902
  hessian_block                4      11          -1.811764          -0.062439           0.860211          -0.847669          -1.31301
  hessian_block                4      12          -0.110467           0.331442          -0.044802           0.434978           0.47535
  hessian_block                5       5           5.365692          -0.397667          -1.204783          -0.397667           6.24947
  hessian_block                5       6           0.262593          -0.381149          -0.392051           0.192101          -0.19230
  hessian_block                5       7          -0.381747           1.118096           0.053495          -0.931194           0.06840
  hessian_block                5       8           0.141986           0.202905           0.432005           0.510738          -0.03063
  hessian_block                5       9          -1.358982          -0.381599           1.711140          -0.393782          -1.86169
  hessian_block                5      10          -0.152219           0.542634           0.460804           0.011164           0.01170
  hessian_block                5      11           0.521441          -0.891621           0.021389           1.071547           0.12978
  hessian_block                5      12           0.373061           0.225771          -0.476754          -0.427705          -0.56239
  hessian_block                6       6           5.668835           0.401853           1.830791           0.401853           5.74928
  hessian_block                6       7          -0.032572          -0.149226          -0.073278           0.471586           0.19718
  hessian_block                6       8          -0.136417           0.359380           0.144375           0.131103           0.23966
  hessian_block                6       9           0.082859           0.133689           0.017865           0.278008           0.78306
  hessian_block                6      10          -1.958526          -1.307493          -2.840237          -1.035736          -1.99023
  hessian_block                6      11           0.208257           0.332707          -0.119556          -0.717280           0.53207
  hessian_block                6      12           0.483002           0.140742           0.305167           0.097711          -0.16213
  hessian_block                7       7           5.445342           0.501895           1.111610           0.501895           6.10746
  hessian_block                7       8          -0.021294          -0.123820           0.040021           0.038421          -0.40602
  hessian_block                7       9           0.388175           0.601011          -0.242809          -0.671683          -0.40833
  hessian_block                7      10           0.273980          -0.601483          -0.180479           0.104539          -0.35640
  hessian_block                7      11          -1.854113           0.453488          -1.688223           0.650578          -2.37336
  hessian_block                7      12           0.084979          -0.056171           0.524858          -0.457504           0.51480
  hessian_block                8       8           4.766232           0.089313          -0.913807           0.089313           5.68071
  hessian_block                8       9           0.239761          -0.502348          -0.207669           0.142206           0.18229
  hessian_block                8      10           0.069645          -0.218834           0.257882          -0.605454          -0.50451
  hessian_block                8      11           0.164500          -0.163023          -0.185897           0.594810           1.19155
  hessian_block                8      12          -0.746659           1.054372           1.722116           0.854485          -1.57378
  hessian_block                9       9           5.034193          -0.535408          -0.798242          -0.535408           6.45128
  hessian_block                9      10          -0.036491           0.239286          -0.159547          -0.214433          -0.07921
  hessian_block                9      11          -0.197184           0.861437          -0.109439          -0.701276           0.50600
  hessian_block                9      12           0.127962          -0.238192           0.674309           0.202981          -0.23019
  hessian_block               10      10           5.852426           0.589936           1.695780           0.589936           6.82035
  hessian_block               10      11          -0.147200           0.019791           0.388439           0.356608          -1.35042
  hessian_block               10      12          -0.553369          -0.171087          -0.206548          -0.453813          -0.05614
  hessian_block               11      11           5.465854           0.313311           0.838425           0.313311           7.94934
  hessian_block               11      12           0.103011           0.102553          -0.463420           0.295208          -0.86255
  hessian_block               12      12           4.920638           0.027711          -0.929915           0.027711           5.61185
  hessian_block_lv             1       1          23.170770          -3.804625           4.799077          -3.804625          23.51674
  hessian_block_lv_atom        1       1           0.251011           0.396401           0.060569          -0.359207          -0.55317
  hessian_block_lv_atom        1       2          -0.478414          -0.839111          -0.209245           0.161625          -0.21128
  hessian_block_lv_atom        1       3          -0.558017          -0.966869          -0.244287           0.263621           0.49903
  hessian_block_lv_atom        1       4           0.088856           0.105383          -0.004685           0.732050           0.77423
  hessian_block_lv_atom        1       5           0.278395           0.435748           0.370347           0.155452           0.02475
  hessian_block_lv_atom        1       6           0.099127          -0.103229          -0.293590          -0.456337          -0.23552
  hessian_block_lv_atom        1       7          -0.533053          -0.801462           0.122040          -0.706037          -0.97758
  hessian_block_lv_atom        1       8          -0.040447           0.205127          -0.241008           0.069974           0.22732
  hessian_block_lv_atom        1       9           0.100411           0.193468          -0.212011          -0.625636          -0.45564
  hessian_block_lv_atom        1      10          -0.247779           0.008109           0.313764           0.465505           0.07907
  hessian_block_lv_atom        1      11           0.547050           0.913295          -0.065215           0.285785           0.85125
  hessian_block_lv_atom        1      12           0.492863           0.453141           0.403321           0.013205          -0.02244
  symmetry_n_params 39 3 36
  symmetry_params a1 b2 c3 x0 x1 x2 x3 x4 x5 x6 x7 x8 x9 x10 x11 x12 x13 x14 x15 x16 x17 x18 x19 x20 x21 x22 x23 x24 x25 x26 x27 x28 x
  symmetry_lv a1 , 0 , 0
  symmetry_lv 0 , b2 , 0
  symmetry_lv 0 , 0 , c3
  symmetry_frac x0 , x1 , x2
  symmetry_frac x3 , x4 , x5
  symmetry_frac x6 , x7 , x8
  symmetry_frac x9 , x10 , x11
  symmetry_frac x12 , x13 , x14
  symmetry_frac x15 , x16 , x17
  symmetry_frac x18 , x19 , x20
  symmetry_frac x21 , x22 , x23
  symmetry_frac x24 , x25 , x26
  symmetry_frac x27 , x28 , x29
  symmetry_frac x30 , x31 , x32
  symmetry_frac x33 , x34 , x35
  
  -----------------------------------------------------------------------
  Completed first pass over input file geometry.in .
  -----------------------------------------------------------------------
  

  Basic array size parameters:
  | Number of species                 :        2
  | Number of atoms                   :       12
  | Number of lattice vectors         :        3
  | Max. basis fn. angular momentum   :        4
  | Max. atomic/ionic basis occupied n:        5
  | Max. number of basis fn. types    :        3
  | Max. radial fns per species/type  :       10
  | Max. logarithmic grid size        :     1444
  | Max. radial integration grid size :      125
  | Max. angular integration grid size:      434
  | Max. angular grid division number :        8
  | Radial grid for Hartree potential :     1444
  | Number of spin channels           :        1

------------------------------------------------------------
          Reading file control.in.
------------------------------------------------------------
  XC: Using PBE gradient-corrected functionals.
  Using libMBD for calculating MBD and TS energies
  Spin treatment: No spin polarisation.
  Found k-point grid:        22        22        18
  Scalar relativistic treatment of kinetic energy: on-site free-atom approximation to ZORA.
  Max energy increase before discarding BFGS move:   0.100000E-01 eV
  Assuming qualitatively harmonic for steps shorter than   0.150000E-01 A.
  S.C.F. convergence parameters will be adjusted in iteration number     3 of each new s.c.f. cycle.
  Geometry relaxation: Modified BFGS - TRM (trust radius method) for lattice optimization.
  Convergence accuracy for geometry relaxation: Maximum force <   0.100000E-01 eV/A.
 
  Reading configuration options for species Pd                  .
  | Found nuclear charge :  46.0000
  | Found atomic mass :    106.420000000000      amu
  | Found l_max for Hartree potential  :   6
  | Found cutoff potl. onset [A], width [A], scale factor :    4.00000    2.00000    1.00000
  | Threshold for basis-dependent cutoff potential is   0.100000E-03
  | Found data for basic radial integration grid :    62 points, outermost radius =    7.000 A
  | Found multiplier for basic radial grid :   2
  | Found angular grid specification: user-specified.
  | Specified grid contains     6 separate shells.
  | Check grid settings after all constraints further below.
  | Found free-atom valence shell :  5 s   1.000
  | Found free-atom valence shell :  4 p   6.000
  | Found free-atom valence shell :  4 d   9.000
  | Found free-ion valence shell :  5 s   0.000
  | Found free-ion valence shell :  4 p   6.000
  | Found free-ion valence shell :  4 d   8.000
  | Found ionic basis function :  5 p , default cutoff radius.
  | Found hydrogenic basis function :  4 f   8.000
  | Found hydrogenic basis function :  5 g  10.000
  | Found hydrogenic basis function :  3 s   2.600
  | Found hydrogenic basis function :  3 d   2.500
  Species Pd                  : Missing cutoff potential type.
  Defaulting to exp(1/x)/(1-x)^2 type cutoff potential.
  Species Pd: No 'logarithmic' tag. Using default grid for free atom:
  | Default logarithmic grid data [bohr] : 0.1000E-03 0.1000E+03 0.1012E+01
  | Will include ionic basis functions of  2.0-fold positive Pd                   ion.
  Species Pd: On-site basis accuracy parameter (for Gram-Schmidt orthonormalisation) not specified.
  Using default value basis_acc =  0.1000000E-03.
  Species Pd                  : Using default innermost maximum threshold i_radial=  2 for radial functions.
  Species Pd                  : Default cutoff onset for free atom density etc. : 0.40000000E+01 AA.
  Species Pd                  : Basic radial grid will be enhanced according to radial_multiplier =   2, to contain   125 grid points.
 
  Reading configuration options for species Se                  .
  | Found nuclear charge :  34.0000
  | Found atomic mass :    78.9600000000000      amu
  | Found l_max for Hartree potential  :   6
  | Found cutoff potl. onset [A], width [A], scale factor :    4.00000    2.00000    1.00000
  | Threshold for basis-dependent cutoff potential is   0.100000E-03
  | Found data for basic radial integration grid :    55 points, outermost radius =    7.000 A
  | Found multiplier for basic radial grid :   2
  | Found angular grid specification: user-specified.
  | Specified grid contains     5 separate shells.
  | Check grid settings after all constraints further below.
  | Found free-atom valence shell :  4 s   2.000
  | Found free-atom valence shell :  4 p   4.000
  | Found free-atom valence shell :  3 d  10.000
  | Found free-ion valence shell :  4 s   1.000
  | Found free-ion valence shell :  4 p   3.000
  | Found free-ion valence shell :  3 d  10.000
  | Found hydrogenic basis function :  3 d   4.300
  | Found hydrogenic basis function :  2 p   1.600
  | Found hydrogenic basis function :  4 f   7.200
  | Found ionic basis function :  4 s , default cutoff radius.
  Species Se                  : Missing cutoff potential type.
  Defaulting to exp(1/x)/(1-x)^2 type cutoff potential.
  Species Se: No 'logarithmic' tag. Using default grid for free atom:
  | Default logarithmic grid data [bohr] : 0.1000E-03 0.1000E+03 0.1012E+01
  | Will include ionic basis functions of  2.0-fold positive Se                   ion.
  Species Se: On-site basis accuracy parameter (for Gram-Schmidt orthonormalisation) not specified.
  Using default value basis_acc =  0.1000000E-03.
  Species Se                  : Using default innermost maximum threshold i_radial=  2 for radial functions.
  Species Se                  : Default cutoff onset for free atom density etc. : 0.40000000E+01 AA.
  Species Se                  : Basic radial grid will be enhanced according to radial_multiplier =   2, to contain   111 grid points.
 
  Finished reading input file 'control.in'. Consistency checks are next.
 
  MPI_IN_PLACE appears to work with this MPI implementation.
  | Keeping use_mpi_in_place .true. (see manual).
  Target number of points in a grid batch is not set. Defaulting to  100
  Method for grid partitioning is not set. Defaulting to parallel hash+maxmin partitioning.
  Batch size limit is not set. Defaulting to    200
  By default, will store active basis functions for each batch.
  If in need of memory, prune_basis_once .false. can be used to disable this option.
  communication_type for Hartree potential was not specified.
  Defaulting to calc_hartree .
  Defaulting to Pulay charge density mixer.
  Pulay mixer: Number of relevant iterations not set.
  Defaulting to    8 iterations.
  Pulay mixer: Number of initial linear mixing iterations not set.
  Defaulting to    0 iterations.
  Work space size for distributed Hartree potential not set.
  Defaulting to   0.200000E+03 MB.
  Mixing parameter for charge density mixing has not been set.
  Using default: charge_mix_param =     0.0500.
  The mixing parameter will be adjusted in iteration number     3 of each s.c.f. cycle (i.e., each geometry step).
  Algorithm-dependent basis array size parameters:
  | n_max_pulay                         :        8
  Maximum number of self-consistency iterations not provided.
  Presetting  1000 iterations.
  Presetting      1001 iterations before the initial mixing cycle
  is restarted anyway using the sc_init_iter criterion / keyword.
  Presetting a factor      1.000 between actual scf density residual
  and density convergence criterion sc_accuracy_rho below which sc_init_iter
  takes no effect.
 * No s.c.f. convergence criteria (sc_accuracy_*) were provided in control.in.
 * The run will proceed with a reasonable default guess, but please check whether.
 * the s.c.f. cycles seem to take too much or too little time.
  No maximum number of relaxation steps, defaulting to     1000
  Using explicit Hessian from geometry.in.
  Maximum energy tolerance by which TRM/BFGS trajectory may increase over multiple steps:   0.300000E-02
  No trust radius initializer. Defaulting to   0.200000E+00 A.
  Unit cell relaxation: Unit cell will be relaxed fully.
  Unit cell relaxation: Analytical stress will be used.
  Analytical stress will be computed.
  Analytical stress calculation: Only the upper triangle is calculated.
                                 Final output is symmetrized.
  Analytical stress calculation: scf convergence accuracy of stress not set.
                                 Analytical stress self-consistency will not be checked explicitly.
                                 Be sure to set other criteria like sc_accuracy_rho tight enough.
 * Notice: The s.c.f. convergence criterion sc_accuracy_rho was not provided.
 * We used to stop in this case, and ask the user to provide reasonable
 * scf convergence criteria. However, this led some users to employ criteria
 * that led to extremely long run times, e.g., for simple relaxation.
 * We now preset a default value for sc_accuracy_rho if it is not set.
 * You may still wish to check if this setting is too tight or too loose for your needs.
 * Based on n_atoms, FHI-aims chose sc_accuracy_rho =  0.141421E-05 .
  Force calculation: scf convergence accuracy of forces not set.
  Defaulting to 'sc_accuracy_forces not_checked'.
  Handling of forces: Unphysical translation and rotation will be removed from forces.
  No accuracy limit for integral partition fn. given. Defaulting to  0.1000E-14.
  No threshold value for u(r) in integrations given. Defaulting to  0.1000E-05.
  No occupation type (smearing scheme) given. Defaulting to Gaussian broadening, width =  0.1000E-01 eV.
  The width will be adjusted in iteration number     3 of each s.c.f. cycle (i.e., each geometry step).
  S.C.F. convergence parameters will be adjusted in iteration number     3 of the first full s.c.f. cycle only.
  No accuracy for occupation numbers given. Defaulting to  0.1000E-12.
  No threshold value for occupation numbers given. Defaulting to  0.0000E+00.
  No accuracy for fermi level given. Defaulting to  0.1000E-19.
  Maximum # of iterations to find E_F not set. Defaulting to  200.
  Preferred method for the eigenvalue solver ('KS_method') not specified in 'control.in'.
  Defaulting to serial version, LAPACK (via ELSI), since more k-points than CPUs available.
  Will not use alltoall communication since running on < 1024 CPUs.
  Threshold for basis singularities not set.
  Default threshold for basis singularities:  0.1000E-04
  partition_type (choice of integration weights) for integrals was not specified.
  | Using a version of the partition function of Stratmann and coworkers ('stratmann_sparse').
  | At each grid point, the set of atoms used to build the partition table is smoothly restricted to
  | only those atoms whose free-atom density would be non-zero at that grid point.
  Partitioning for Hartree potential was not defined. Using partition_type for integrals.
  | Adjusted default value of keyword multip_moments_threshold to:       0.10000000E-11
  | This value may affect high angular momentum components of the Hartree potential in periodic systems.
  Angular momentum expansion for Kerker preconditioner not set explicitly.
  | Using default value of   0
  No explicit requirement for turning off preconditioner.
  | By default, it will be turned off when the charge convergence reaches
  | sc_accuracy_rho  =   0.141421E-05
  No special mixing parameter while Kerker preconditioner is on.
  Using default: charge_mix_param =     0.0500.
  No q(lm)/r^(l+1) cutoff set for long-range Hartree potential.
  | Using default value of  0.100000E-09 .
  | Verify using the multipole_threshold keyword.
  Defaulting to new monopole extrapolation.
  Density update method: automatic selection selected.
  Using density matrix based charge density update.
  Using density matrix based charge density update.
  Using packed matrix style: index .
  Geometry relaxation: A file "geometry.in.next_step" is written out by default after each step.
  | This file contains the geometry of the current relaxation step as well as
  | the current Hessian matrix needed to restart the relaxation algorithm.
  | If you do not want part or all of this information, use the keywords
  | "write_restart_geometry" or "hessian_to_restart_geometry" to switch the output off.
  Defaulting to use time-reversal symmetry for k-point grid.
  Charge integration errors on the 3D integration grid will be compensated
  by explicit normalization and distribution of residual charges.
  Use the "compensate_multipole_errors" flag to change this behaviour.
------------------------------------------------------------


------------------------------------------------------------
          Reading geometry description geometry.in.
------------------------------------------------------------
  Input structure read successfully.
  The structure contains       12 atoms,  and a total of        456.000 electrons.

  Input geometry:
  | Unit cell:
  |        5.85480682        0.00000000        0.00000000
  |        0.00000000        5.95910471        0.00000000
  |        0.00000000        0.00000000        7.43174746
  | Atomic structure:
  |       Atom                x [A]            y [A]            z [A]
  |    1: Species Pd            2.94159657        0.01240906        0.01429445
  |    2: Species Pd            0.01211588        0.01243230        3.73563289
  |    3: Species Pd            0.01259890        2.99416771        0.01463668
  |    4: Species Pd            2.94207667        2.99418863        3.73528999
  |    5: Species Se            3.59659267        0.71553795        3.00483943
  |    6: Species Se            5.21686836        5.27312845        6.72228453
  |    7: Species Se            0.66692163        2.29155089        4.46461121
  |    8: Species Se            2.28703924        3.69709810        0.74505282
  |    9: Species Se            2.28729475        5.27327534        4.46461225
  |   10: Species Se            0.66711045        0.71558282        0.74518786
  |   11: Species Se            5.21669224        3.69708952        3.00485274
  |   12: Species Se            3.59648195        2.29143505        6.72241221

  Lattice parameters for 3D lattice (in Angstroms) :     5.854807    5.959105    7.431747
  Angle(s) between unit vectors (in degrees)       :    90.000000   90.000000   90.000000

  | The smallest distance between any two atoms is         2.40489697 AA.
  | The first atom of this pair is atom number                      6 .
  | The second atom of this pair is atom number                    10 .
  | Wigner-Seitz cell of the first atom image           0     0     0 .
  | (The Wigner-Seitz cell of the second atom is 0 0 0  by definition.)

  Symmetry information by spglib:
  | Precision set to  0.1E-04
  | Number of Operations  : 1
  | Space group           : 1
  | International         : P1
  | Schoenflies           : C1^1

  Quantities derived from the lattice vectors:
  | Reciprocal lattice vector 1:  1.073167  0.000000  0.000000
  | Reciprocal lattice vector 2:  0.000000  1.054384  0.000000
  | Reciprocal lattice vector 3:  0.000000  0.000000  0.845452
  | Unit cell volume                               :   0.259289E+03  A^3

  Range separation radius for Ewald summation (hartree_convergence_parameter):      3.99884710 bohr.

  Fractional coordinates:
                         L1                L2                L3
       atom_frac         0.50242419        0.00208237        0.00192343  Pd
       atom_frac         0.00206939        0.00208627        0.50265875  Pd
       atom_frac         0.00215189        0.50245261        0.00196948  Pd
       atom_frac         0.50250619        0.50245612        0.50261261  Pd
       atom_frac         0.61429741        0.12007474        0.40432475  Se
       atom_frac         0.89104022        0.88488602        0.90453619  Se
       atom_frac         0.11391010        0.38454617        0.60074851  Se
       atom_frac         0.39062591        0.62041167        0.10025271  Se
       atom_frac         0.39066955        0.88491067        0.60074865  Se
       atom_frac         0.11394235        0.12008227        0.10027088  Se
       atom_frac         0.89101014        0.62041023        0.40432654  Se
       atom_frac         0.61427850        0.38452673        0.90455337  Se

  Number of empty states per atom not set in control.in - providing a guess from actual geometry.
  | Total number of empty states used during s.c.f. cycle:       66
  If you use a very high smearing, use empty_states (per atom!) in control.in to increase this value.

  Structure-dependent array size parameters: 
  | Maximum number of distinct radial functions  :       27
  | Maximum number of basis functions            :      468
  | Number of Kohn-Sham states (occupied + empty):      294
------------------------------------------------------------

------------------------------------------------------------
          Preparing all fixed parts of the calculation.
------------------------------------------------------------
  Determining machine precision:
    2.225073858507201E-308
  Setting up grids for atomic and cluster calculations.

  Creating wave function, potential, and density for free atoms.

  Species: Pd

  List of occupied orbitals and eigenvalues:
    n    l              occ      energy [Ha]    energy [eV]
    1    0           2.0000      -913.269104    -24851.3168
    2    0           2.0000      -130.434372     -3549.2998
    3    0           2.0000       -23.521804      -640.0609
    4    0           2.0000        -3.256918       -88.6253
    5    0           1.0000        -0.157260        -4.2793
    2    1           6.0000      -116.910756     -3181.3035
    3    1           6.0000       -19.103344      -519.8284
    4    1           6.0000        -1.998052       -54.3697
    3    2          10.0000       -12.098182      -329.2083
    4    2           9.0000        -0.243389        -6.6230


  Species: Se

  List of occupied orbitals and eigenvalues:
    n    l              occ      energy [Ha]    energy [eV]
    1    0           2.0000      -466.337810    -12689.6975
    2    0           2.0000       -59.202598     -1610.9847
    3    0           2.0000        -7.847116      -213.5309
    4    0           2.0000        -0.634372       -17.2621
    2    1           6.0000       -52.061107     -1416.6548
    3    1           6.0000        -5.620941      -152.9536
    4    1           4.0000        -0.238469        -6.4891
    3    2          10.0000        -1.951949       -53.1152

  Creating fixed part of basis set: Ionic, confined, hydrogenic.
 
  Pd                   ion:

  List of free ionic orbitals and eigenvalues:
    n    l      energy [Ha]    energy [eV]
    1    0      -914.099884    -24873.9234
    2    0      -131.248265     -3571.4470
    3    0       -24.332473      -662.1203
    4    0        -4.059276      -110.4585
    2    1      -117.724296     -3203.4411
    3    1       -19.913908      -541.8850
    4    1        -2.795328       -76.0648
    3    2       -12.908733      -351.2645
    4    2        -1.004248       -27.3270


  List of ionic basis orbitals and eigenvalues:
    n    l      energy [Ha]    energy [eV]    outer radius [A]
    5    1        -0.516938       -14.0666       5.427025

 
  Pd                   hydrogenic:
 
  List of hydrogenic basis orbitals: 
    n    l      effective z      eigenvalue [eV]  inner max. [A]     outer max. [A]     outer radius [A]   
    4    3         8.000000       -54.4226           1.054686           1.054686           4.629581
    5    4        10.000000       -54.4226           1.330451           1.330451           5.043202
    3    0         2.600000        -9.8948           0.150992           2.606197           5.493778
    3    2         2.500000        -9.3396           1.873517           1.873517           5.493778
 
 
  Se                   ion:

  List of free ionic orbitals and eigenvalues:
    n    l      energy [Ha]    energy [eV]
    1    0      -467.261007    -12714.8189
    2    0       -60.104893     -1635.5374
    3    0        -8.743714      -237.9286
    4    0        -1.414053       -38.4783
    2    1       -52.964156     -1441.2280
    3    1        -6.516916      -177.3343
    4    1        -0.961869       -26.1738
    3    2        -2.844511       -77.4031


  List of ionic basis orbitals and eigenvalues:
    n    l      energy [Ha]    energy [eV]    outer radius [A]
    4    0        -1.414046       -38.4782       4.083166

 
  Se                   hydrogenic:
 
  List of hydrogenic basis orbitals: 
    n    l      effective z      eigenvalue [eV]  inner max. [A]     outer max. [A]     outer radius [A]   
    3    2         4.300000       -27.9518           1.103845           1.103845           5.278265
    2    1         1.600000        -8.6828           1.326010           1.326010           5.475439
    4    3         7.200000       -44.0822           1.173422           1.173422           4.965294
 

  Adding cutoff potential to free-atom effective potential.
  Creating atomic-like basis functions for current effective potential.

  Species Pd                  :

  List of atomic basis orbitals and eigenvalues:
    n    l      energy [Ha]    energy [eV]    outer radius [A]
    1    0      -913.269104    -24851.3168       0.223280
    2    0      -130.434372     -3549.2998       0.615909
    3    0       -23.521804      -640.0609       1.414312
    4    0        -3.256918       -88.6253       3.581357
    5    0        -0.157260        -4.2793       5.427025
    2    1      -116.910756     -3181.3035       0.631154
    3    1       -19.103344      -519.8284       1.540671
    4    1        -1.998052       -54.3697       4.408641
    3    2       -12.098182      -329.2083       1.806051
    4    2        -0.243389        -6.6230       5.361084


  Species Se                  :

  List of atomic basis orbitals and eigenvalues:
    n    l      energy [Ha]    energy [eV]    outer radius [A]
    1    0      -466.337810    -12689.6975       0.309561
    2    0       -59.202598     -1610.9847       0.885812
    3    0        -7.847116      -213.5309       2.355489
    4    0        -0.634372       -17.2621       5.214131
    2    1       -52.061107     -1416.6548       0.907737
    3    1        -5.620941      -152.9536       2.694529
    4    1        -0.238469        -6.4891       5.408909
    3    2        -1.951949       -53.1152       4.083166

  Assembling full basis from fixed parts.
  | Species Pd :   atomic orbital   1 s accepted.
  | Species Pd :   atomic orbital   2 s accepted.
  | Species Pd :   atomic orbital   3 s accepted.
  | Species Pd :   atomic orbital   4 s accepted.
  | Species Pd :   atomic orbital   5 s accepted.
  | Species Pd :    hydro orbital   3 s accepted.
  | Species Pd :   atomic orbital   2 p accepted.
  | Species Pd :   atomic orbital   3 p accepted.
  | Species Pd :   atomic orbital   4 p accepted.
  | Species Pd :    ionic orbital   5 p accepted.
  | Species Pd :   atomic orbital   3 d accepted.
  | Species Pd :   atomic orbital   4 d accepted.
  | Species Pd :    hydro orbital   3 d accepted.
  | Species Pd :    hydro orbital   4 f accepted.
  | Species Pd :    hydro orbital   5 g accepted.
  | Species Se :   atomic orbital   1 s accepted.
  | Species Se :   atomic orbital   2 s accepted.
  | Species Se :   atomic orbital   3 s accepted.
  | Species Se :    ionic orbital   4 s accepted.
  | Species Se :   atomic orbital   4 s accepted.
  | Species Se :   atomic orbital   2 p accepted.
  | Species Se :   atomic orbital   3 p accepted.
  | Species Se :   atomic orbital   4 p accepted.
  | Species Se :    hydro orbital   2 p accepted.
  | Species Se :   atomic orbital   3 d accepted.
  | Species Se :    hydro orbital   3 d accepted.
  | Species Se :    hydro orbital   4 f accepted.
 
  Basis size parameters after reduction:
  | Total number of radial functions:       27
  | Total number of basis functions :      468
 
  Per-task memory consumption for arrays in subroutine allocate_ext:
  |           9.993344MB.
  Testing on-site integration grid accuracy.
  |  Species  Function  <phi|h_atom|phi> (log., in eV)  <phi|h_atom|phi> (rad., in eV)
           1        1             -24851.3167505682             -24851.3148165635
           1        2              -3549.2998457785              -3549.2998098031
           1        3               -640.0608571327               -640.0608534886
           1        4                -88.6252603131                -88.6252593316
           1        5                 -4.2849374515                 -4.2849400622
           1        6                  4.9432123540                  4.9432188418
           1        7              -3181.3035399559              -3181.3035364574
           1        8               -519.8284281886               -519.8284264063
           1        9                -54.3697495804                -54.3697489261
           1       10                  0.8628369484                  0.8628370487
           1       11               -329.2082917394               -329.2082912864
           1       12                 -6.6230267036                 -6.6230265076
           1       13                  5.4924295291                  5.4924115607
           1       14                 25.0740861942                 25.0740861175
           1       15                 38.8271273823                 38.8271278029
           2       16             -12689.6974611609             -12689.6967666984
           2       17              -1610.9846578580              -1610.9846472470
           2       18               -213.5308789869               -213.5308777267
           2       19                -17.0464428502                -17.0464426496
           2       20                  6.7356859379                  6.7356842047
           2       21              -1416.6548010133              -1416.6548002108
           2       22               -152.9535734377               -152.9535727493
           2       23                 -6.4896265677                 -6.4896303794
           2       24                  5.2703037283                  5.2701679583
           2       25                -53.1152220964                -53.1152219035
           2       26                  7.6186674138                  7.6186665630
           2       27                 23.1072799052                 23.1072803137

  Preparing densities etc. for the partition functions (integrals / Hartree potential).

  Preparations completed.
  max(cpu_time)          :      0.554 s.
  Wall clock time (cpu1) :      0.586 s.
------------------------------------------------------------

------------------------------------------------------------
          Begin self-consistency loop: Initialization.

          Date     :  20200420, Time     :  204646.704
------------------------------------------------------------

  Initializing index lists of integration centers etc. from given atomic structure:
  Mapping all atomic coordinates to central unit cell.

  Initializing the k-points
  Using symmetry for reducing the k-points
  | k-points reduced from:     8712 to     4360
  | Number of k-points                             :      4360
  The eigenvectors in the calculations are COMPLEX.
  | K-points in task   0:       181
  | K-points in task   1:       182
  | K-points in task   2:       182
  | K-points in task   3:       182
  | K-points in task   4:       182
  | K-points in task   5:       182
  | K-points in task   6:       182
  | K-points in task   7:       182
  | K-points in task   8:       182
  | K-points in task   9:       182
  | K-points in task  10:       182
  | K-points in task  11:       182
  | K-points in task  12:       182
  | K-points in task  13:       182
  | K-points in task  14:       182
  | K-points in task  15:       182
  | K-points in task  16:       182
  | K-points in task  17:       181
  | K-points in task  18:       181
  | K-points in task  19:       181
  | K-points in task  20:       181
  | K-points in task  21:       181
  | K-points in task  22:       181
  | K-points in task  23:       181
  | Number of basis functions in the Hamiltonian integrals :      5560
  | Number of basis functions in a single unit cell        :       468
  | Number of centers in hartree potential         :      1325
  | Number of centers in hartree multipole         :       769
  | Number of centers in electron density summation:       596
  | Number of centers in basis integrals           :       640
  | Number of centers in integrals                 :       236
  | Number of centers in hamiltonian               :       596
  | Consuming       5858 KiB for k_phase.
  | Number of super-cells (origin) [n_cells]                     :         567
  | Number of super-cells (after PM_index) [n_cells]             :          86
  | Number of super-cells in hamiltonian [n_cells_in_hamiltonian]:          86
  | Size of matrix packed + index [n_hamiltonian_matrix_size] :     1293650

  Initializing relaxation algorithms.
  | Estimated reciprocal-space cutoff momentum G_max:         2.42893087 bohr^-1 .
  | Reciprocal lattice points for long-range Hartree potential:     418
  Partitioning the integration grid into batches with parallel hashing+maxmin method.
  | Number of batches:     4179
  | Maximal batch size:     110
  | Minimal batch size:      49
  | Average batch size:      91.921
  | Standard deviation of batch sizes:      11.333

  Integration load balanced across    24 MPI tasks.
  Work distribution over tasks is as follows:
  Task     0 has      16029 integration points.
  Task     1 has      16022 integration points.
  Task     2 has      16018 integration points.
  Task     3 has      15966 integration points.
  Task     4 has      15977 integration points.
  Task     5 has      16020 integration points.
  Task     6 has      16039 integration points.
  Task     7 has      16012 integration points.
  Task     8 has      16000 integration points.
  Task     9 has      15994 integration points.
  Task    10 has      16014 integration points.
  Task    11 has      15998 integration points.
  Task    12 has      16036 integration points.
  Task    13 has      15965 integration points.
  Task    14 has      15992 integration points.
  Task    15 has      15965 integration points.
  Task    16 has      16028 integration points.
  Task    17 has      15993 integration points.
  Task    18 has      16022 integration points.
  Task    19 has      16016 integration points.
  Task    20 has      16019 integration points.
  Task    21 has      15999 integration points.
  Task    22 has      15976 integration points.
  Task    23 has      16036 integration points.
  Initializing partition tables, free-atom densities, potentials, etc. across the integration grid (initialize_grid_storage).
  | initialize_grid_storage: Actual outermost partition radius vs. multipole_radius_free
  | (-- VB: in principle, multipole_radius_free should be larger, hence this output)
  | Species        1: Confinement radius =              6.000000000000000 AA, multipole_radius_free =              6.058219618167466 AA.
  | Species        1: outer_partition_radius set to              6.058219618167466 AA .
  | Species        2: Confinement radius =              6.000000000000000 AA, multipole_radius_free =              6.037996416842453 AA.
  | Species        2: outer_partition_radius set to              6.037996416842453 AA .
  | The sparse table of interatomic distances needs       2897.83 kbyte instead of      3276.80 kbyte of memory.
  | Net number of integration points:   384136
  | of which are non-zero points    :   322110
  | Numerical average free-atom electrostatic potential    :    -17.07914196 eV
  Renormalizing the initial density to the exact electron count on the 3D integration grid.
  | Initial density: Formal number of electrons (from input files) :     456.0000000000
  | Integrated number of electrons on 3D grid     :     456.0000570746
  | Charge integration error                      :       0.0000570746
  | Normalization factor for density and gradient :       0.9999998748
  Renormalizing the free-atom superposition density to the exact electron count on the 3D integration grid.
  | Formal number of electrons (from input files) :     456.0000000000
  | Integrated number of electrons on 3D grid     :     456.0000570746
  | Charge integration error                      :       0.0000570746
  | Normalization factor for density and gradient :       0.9999998748
  Obtaining max. number of non-zero basis functions in each batch (get_n_compute_maxes).
  | Maximal number of non-zero basis functions:     1032 in task     0
  | Maximal number of non-zero basis functions:     1012 in task     1
  | Maximal number of non-zero basis functions:     1018 in task     2
  | Maximal number of non-zero basis functions:     1030 in task     3
  | Maximal number of non-zero basis functions:     1034 in task     4
  | Maximal number of non-zero basis functions:     1025 in task     5
  | Maximal number of non-zero basis functions:     1026 in task     6
  | Maximal number of non-zero basis functions:     1018 in task     7
  | Maximal number of non-zero basis functions:     1029 in task     8
  | Maximal number of non-zero basis functions:     1023 in task     9
  | Maximal number of non-zero basis functions:     1025 in task    10
  | Maximal number of non-zero basis functions:     1030 in task    11
  | Maximal number of non-zero basis functions:     1034 in task    12
  | Maximal number of non-zero basis functions:     1034 in task    13
  | Maximal number of non-zero basis functions:     1022 in task    14
  | Maximal number of non-zero basis functions:     1013 in task    15
  | Maximal number of non-zero basis functions:     1026 in task    16
  | Maximal number of non-zero basis functions:     1042 in task    17
  | Maximal number of non-zero basis functions:     1040 in task    18
  | Maximal number of non-zero basis functions:     1012 in task    19
  | Maximal number of non-zero basis functions:     1026 in task    20
  | Maximal number of non-zero basis functions:     1020 in task    21
  | Maximal number of non-zero basis functions:     1020 in task    22
  | Maximal number of non-zero basis functions:     1017 in task    23
  Allocating      380.007 MB for KS_eigenvector_complex
  Integrating Hamiltonian matrix: batch-based integration.
  Time summed over all CPUs for integration: real work       63.882 s, elapsed       65.173 s
  Integrating overlap matrix.
  Time summed over all CPUs for integration: real work       46.193 s, elapsed       47.239 s
  Decreasing sparse matrix size:
  | Tolerance:  0.1000E-12
  Hamiltonian matrix
  | Array has  1119468 nonzero elements out of  1293650 elements
  | Sparsity factor is 0.135
  Overlap matrix
  | Array has  1032850 nonzero elements out of  1293650 elements
  | Sparsity factor is 0.202
  New size of hamiltonian matrix:     1119538

  Updating Kohn-Sham eigenvalues and eigenvectors using ELSI and the (modified) LAPACK eigensolver.
  Singularity check in k-point 24, task 0 (analysis for other k-points/tasks may follow below):
  Overlap matrix is not singular
  | Lowest and highest eigenvalues :  0.5487E-03,  0.7251E+01
  Finished singularity check of overlap matrix
  | Time :     0.076 s
  Starting LAPACK eigensolver
  Finished Cholesky decomposition
  | Time :     0.018 s
  Finished transformation to standard eigenproblem
  | Time :     0.021 s
  Finished solving standard eigenproblem
  | Time :     0.072 s
  Finished back-transformation of eigenvectors
  | Time :     0.008 s

  Obtaining occupation numbers and chemical potential using ELSI.
  | Chemical potential (Fermi level):    -4.64300304 eV
  Writing Kohn-Sham eigenvalues.
  K-point:       1 at    0.000000    0.000000    0.000000 (in units of recip. lattice)

  State    Occupation    Eigenvalue [Ha]    Eigenvalue [eV]
      1       2.00000        -913.279500       -24851.59963
      2       2.00000        -913.279489       -24851.59934
      3       2.00000        -913.279488       -24851.59931
      4       2.00000        -913.279413       -24851.59726
      5       2.00000        -466.350324       -12690.03797
      6       2.00000        -466.350287       -12690.03697
      7       2.00000        -466.350250       -12690.03595
      8       2.00000        -466.350245       -12690.03582
      9       2.00000        -466.350245       -12690.03582
     10       2.00000        -466.350232       -12690.03547
     11       2.00000        -466.350218       -12690.03511
     12       2.00000        -466.350199       -12690.03458
     13       2.00000        -130.445084        -3549.59134
     14       2.00000        -130.445074        -3549.59105
     15       2.00000        -130.445072        -3549.59102
     16       2.00000        -130.444996        -3549.58895
     17       2.00000        -116.921492        -3181.59568
     18       2.00000        -116.921483        -3181.59544
     19       2.00000        -116.921481        -3181.59539
     20       2.00000        -116.921480        -3181.59536
     21       2.00000        -116.921473        -3181.59516
     22       2.00000        -116.921471        -3181.59512
     23       2.00000        -116.921430        -3181.59398
     24       2.00000        -116.921419        -3181.59369
     25       2.00000        -116.921418        -3181.59366
     26       2.00000        -116.921404        -3181.59329
     27       2.00000        -116.921396        -3181.59305
     28       2.00000        -116.921342        -3181.59160
     29       2.00000         -59.215538        -1611.33677
     30       2.00000         -59.215500        -1611.33575
     31       2.00000         -59.215462        -1611.33472
     32       2.00000         -59.215458        -1611.33459
     33       2.00000         -59.215457        -1611.33458
     34       2.00000         -59.215444        -1611.33423
     35       2.00000         -59.215431        -1611.33386
     36       2.00000         -59.215411        -1611.33333
     37       2.00000         -52.074054        -1417.00710
     38       2.00000         -52.074030        -1417.00645
     39       2.00000         -52.074017        -1417.00610
     40       2.00000         -52.073992        -1417.00541
     41       2.00000         -52.073981        -1417.00512
     42       2.00000         -52.073979        -1417.00506
     43       2.00000         -52.073974        -1417.00492
     44       2.00000         -52.073973        -1417.00491
     45       2.00000         -52.073961        -1417.00457
     46       2.00000         -52.073953        -1417.00436
     47       2.00000         -52.073950        -1417.00427
     48       2.00000         -52.073949        -1417.00424
     49       2.00000         -52.073947        -1417.00419
     50       2.00000         -52.073943        -1417.00410
     51       2.00000         -52.073936        -1417.00388
     52       2.00000         -52.073928        -1417.00366
     53       2.00000         -52.073922        -1417.00352
     54       2.00000         -52.073906        -1417.00308
     55       2.00000         -52.073903        -1417.00299
     56       2.00000         -52.073901        -1417.00295
     57       2.00000         -52.073901        -1417.00294
     58       2.00000         -52.073888        -1417.00260
     59       2.00000         -52.073875        -1417.00223
     60       2.00000         -52.073856        -1417.00170
     61       2.00000         -23.533278         -640.37308
     62       2.00000         -23.533267         -640.37277
     63       2.00000         -23.533266         -640.37274
     64       2.00000         -23.533185         -640.37053
     65       2.00000         -19.115072         -520.14759
     66       2.00000         -19.115060         -520.14724
     67       2.00000         -19.115059         -520.14723
     68       2.00000         -19.114985         -520.14520
     69       2.00000         -19.114977         -520.14498
     70       2.00000         -19.114975         -520.14492
     71       2.00000         -19.114971         -520.14483
     72       2.00000         -19.114890         -520.14262
     73       2.00000         -19.114452         -520.13070
     74       2.00000         -19.114442         -520.13042
     75       2.00000         -19.114440         -520.13039
     76       2.00000         -19.114362         -520.12825
     77       2.00000         -12.109879         -329.52658
     78       2.00000         -12.109867         -329.52626
     79       2.00000         -12.109866         -329.52622
     80       2.00000         -12.109844         -329.52562
     81       2.00000         -12.109832         -329.52529
     82       2.00000         -12.109831         -329.52526
     83       2.00000         -12.109784         -329.52398
     84       2.00000         -12.109748         -329.52302
     85       2.00000         -12.109500         -329.51627
     86       2.00000         -12.109489         -329.51595
     87       2.00000         -12.109488         -329.51595
     88       2.00000         -12.109444         -329.51474
     89       2.00000         -12.109434         -329.51447
     90       2.00000         -12.109432         -329.51440
     91       2.00000         -12.109408         -329.51376
     92       2.00000         -12.109362         -329.51249
     93       2.00000         -12.109352         -329.51225
     94       2.00000         -12.109351         -329.51221
     95       2.00000         -12.109350         -329.51217
     96       2.00000         -12.109271         -329.51002
     97       2.00000          -7.861850         -213.93181
     98       2.00000          -7.861805         -213.93060
     99       2.00000          -7.861762         -213.92943
    100       2.00000          -7.861760         -213.92938
    101       2.00000          -7.861757         -213.92929
    102       2.00000          -7.861743         -213.92890
    103       2.00000          -7.861727         -213.92848
    104       2.00000          -7.861706         -213.92790
    105       2.00000          -5.636254         -153.37029
    106       2.00000          -5.636218         -153.36929
    107       2.00000          -5.636173         -153.36808
    108       2.00000          -5.636166         -153.36789
    109       2.00000          -5.636160         -153.36772
    110       2.00000          -5.636150         -153.36744
    111       2.00000          -5.636129         -153.36689
    112       2.00000          -5.636110         -153.36635
    113       2.00000          -5.636007         -153.36355
    114       2.00000          -5.635957         -153.36219
    115       2.00000          -5.635907         -153.36083
    116       2.00000          -5.635903         -153.36071
    117       2.00000          -5.635892         -153.36044
    118       2.00000          -5.635871         -153.35986
    119       2.00000          -5.635832         -153.35878
    120       2.00000          -5.635820         -153.35847
    121       2.00000          -5.635341         -153.34544
    122       2.00000          -5.635297         -153.34424
    123       2.00000          -5.635261         -153.34326
    124       2.00000          -5.635255         -153.34310
    125       2.00000          -5.635253         -153.34305
    126       2.00000          -5.635241         -153.34271
    127       2.00000          -5.635229         -153.34240
    128       2.00000          -5.635207         -153.34179
    129       2.00000          -3.273934          -89.08828
    130       2.00000          -3.273918          -89.08785
    131       2.00000          -3.273916          -89.08778
    132       2.00000          -3.273798          -89.08457
    133       2.00000          -2.020223          -54.97307
    134       2.00000          -2.020210          -54.97270
    135       2.00000          -2.020174          -54.97174
    136       2.00000          -2.020038          -54.96803
    137       2.00000          -2.019216          -54.94566
    138       2.00000          -2.019214          -54.94560
    139       2.00000          -2.019168          -54.94435
    140       2.00000          -2.019037          -54.94080
    141       2.00000          -2.013032          -54.77739
    142       2.00000          -2.013025          -54.77719
    143       2.00000          -2.013022          -54.77710
    144       2.00000          -2.012917          -54.77426
    145       2.00000          -1.969260          -53.58628
    146       2.00000          -1.969191          -53.58443
    147       2.00000          -1.969151          -53.58333
    148       2.00000          -1.969124          -53.58260
    149       2.00000          -1.968201          -53.55746
    150       2.00000          -1.968157          -53.55627
    151       2.00000          -1.968114          -53.55510
    152       2.00000          -1.968094          -53.55457
    153       2.00000          -1.967762          -53.54554
    154       2.00000          -1.967741          -53.54497
    155       2.00000          -1.967699          -53.54380
    156       2.00000          -1.967684          -53.54339
    157       2.00000          -1.967630          -53.54193
    158       2.00000          -1.967601          -53.54114
    159       2.00000          -1.967554          -53.53987
    160       2.00000          -1.967545          -53.53961
    161       2.00000          -1.967343          -53.53414
    162       2.00000          -1.967310          -53.53324
    163       2.00000          -1.967299          -53.53294
    164       2.00000          -1.967281          -53.53245
    165       2.00000          -1.967262          -53.53193
    166       2.00000          -1.967255          -53.53174
    167       2.00000          -1.967230          -53.53105
    168       2.00000          -1.967229          -53.53103
    169       2.00000          -1.967208          -53.53045
    170       2.00000          -1.967204          -53.53034
    171       2.00000          -1.967191          -53.52998
    172       2.00000          -1.967181          -53.52972
    173       2.00000          -1.967159          -53.52912
    174       2.00000          -1.967152          -53.52893
    175       2.00000          -1.967145          -53.52875
    176       2.00000          -1.967129          -53.52831
    177       2.00000          -1.966677          -53.51600
    178       2.00000          -1.966650          -53.51526
    179       2.00000          -1.966614          -53.51428
    180       2.00000          -1.966602          -53.51398
    181       2.00000          -1.966324          -53.50641
    182       2.00000          -1.966303          -53.50583
    183       2.00000          -1.966263          -53.50473
    184       2.00000          -1.966257          -53.50459
    185       2.00000          -0.759465          -20.66608
    186       2.00000          -0.740457          -20.14885
    187       2.00000          -0.720367          -19.60218
    188       2.00000          -0.718703          -19.55691
    189       2.00000          -0.652681          -17.76037
    190       2.00000          -0.640750          -17.43569
    191       2.00000          -0.639417          -17.39941
    192       2.00000          -0.627528          -17.07590
    193       2.00000          -0.418366          -11.38431
    194       2.00000          -0.410580          -11.17244
    195       2.00000          -0.389519          -10.59935
    196       2.00000          -0.376416          -10.24280
    197       2.00000          -0.370714          -10.08765
    198       2.00000          -0.369256          -10.04796
    199       2.00000          -0.366439           -9.97130
    200       2.00000          -0.366082           -9.96161
    201       2.00000          -0.364576           -9.92062
    202       2.00000          -0.362848           -9.87361
    203       2.00000          -0.361325           -9.83216
    204       2.00000          -0.351698           -9.57020
    205       2.00000          -0.342023           -9.30692
    206       2.00000          -0.330911           -9.00455
    207       2.00000          -0.324686           -8.83516
    208       2.00000          -0.316708           -8.61807
    209       2.00000          -0.316483           -8.61194
    210       2.00000          -0.306006           -8.32686
    211       2.00000          -0.288626           -7.85393
    212       2.00000          -0.286405           -7.79347
    213       2.00000          -0.285113           -7.75832
    214       2.00000          -0.280018           -7.61967
    215       2.00000          -0.279151           -7.59609
    216       2.00000          -0.277232           -7.54387
    217       2.00000          -0.276171           -7.51501
    218       2.00000          -0.275571           -7.49867
    219       2.00000          -0.273696           -7.44765
    220       2.00000          -0.270318           -7.35572
    221       2.00000          -0.265431           -7.22275
    222       2.00000          -0.263826           -7.17907
    223       2.00000          -0.263451           -7.16886
    224       2.00000          -0.257906           -7.01798
    225       2.00000          -0.224143           -6.09923
    226       2.00000          -0.215122           -5.85376
    227       2.00000          -0.212895           -5.79316
    228       0.00000          -0.164331           -4.47167
    229       0.00000          -0.152662           -4.15414
    230       0.00000          -0.135196           -3.67887
    231       0.00000          -0.129877           -3.53414
    232       0.00000          -0.128552           -3.49807
    233       0.00000          -0.125831           -3.42403
    234       0.00000          -0.115554           -3.14439
    235       0.00000          -0.114957           -3.12813
    236       0.00000          -0.082119           -2.23457
    237       0.00000          -0.037339           -1.01605
    238       0.00000          -0.030138           -0.82010
    239       0.00000          -0.002408           -0.06552
    240       0.00000           0.022225            0.60476
    241       0.00000           0.025850            0.70342
    242       0.00000           0.027373            0.74486
    243       0.00000           0.057650            1.56874
    244       0.00000           0.089400            2.43268
    245       0.00000           0.102143            2.77944
    246       0.00000           0.111465            3.03312
    247       0.00000           0.118625            3.22796
    248       0.00000           0.122846            3.34281
    249       0.00000           0.124968            3.40056
    250       0.00000           0.125599            3.41773
    251       0.00000           0.137653            3.74572
    252       0.00000           0.151816            4.13112
    253       0.00000           0.160099            4.35651
    254       0.00000           0.170856            4.64922
    255       0.00000           0.176855            4.81248
    256       0.00000           0.189530            5.15738
    257       0.00000           0.191961            5.22353
    258       0.00000           0.198819            5.41013
    259       0.00000           0.220192            5.99174
    260       0.00000           0.231472            6.29867
    261       0.00000           0.247576            6.73688
    262       0.00000           0.257884            7.01739
    263       0.00000           0.267254            7.27236
    264       0.00000           0.280294            7.62718
    265       0.00000           0.281185            7.65145
[...]
  |                x                y                z                |
  |                                                                   |
  |  x        -0.00020362       0.00000708       0.00002375           |
  |  y         0.00000708       0.00022762       0.00001353           |
  |  z         0.00002375       0.00001353      -0.00017986           |
  |                                                                   |
  |  Pressure:       0.00005195   [eV/A**3]                           |
  |                                                                   |
  +-------------------------------------------------------------------+

 * Warning: Stress tensor is anisotropic. Be aware that pressure is an isotropic quantity.


  Leaving Libmbd.

  Timings for VdW correction (Tkatchenko-Scheffler 2009 or later):
  | CPU time:       37.391 s, Wall clock time:       37.393 s.
  Removing unitary transformations (pure translations, rotations) from forces on atoms.
  Atomic forces before filtering:
  | Net force on center of mass :  -0.387736E-05 -0.615463E-05  0.829830E-05 eV/A
  Atomic forces after filtering:
  | Net force on center of mass :   0.000000E+00 -0.348449E-18 -0.696899E-18 eV/A

  Energy and forces in a compact form:
  | Total energy uncorrected      :         -0.108791111489511E+07 eV
  | Total energy corrected        :         -0.108791111598417E+07 eV  <-- do not rely on this value for anything but (periodic) metals
  | Electronic free energy        :         -0.108791111707324E+07 eV
  Total atomic forces (unitary forces cleaned) [eV/Ang]:
  |    1          0.172604317456552E-02         -0.185392498432703E-02          0.250275354698072E-02
  |    2         -0.182422389555510E-02         -0.197872852463227E-02         -0.339433208933237E-02
  |    3         -0.259837190429253E-02          0.485002238660330E-03          0.857376972445830E-03
  |    4          0.200690459238743E-02          0.771042834272804E-04         -0.191014474399334E-02
  |    5          0.973482479786898E-03         -0.154730167989381E-02          0.197010664763541E-02
  |    6         -0.194393558000504E-02          0.328406023542842E-02          0.365176766117997E-02
  |    7         -0.913636136565474E-03          0.253684725497105E-02         -0.174458532106578E-02
  |    8         -0.349524595431626E-02          0.117157194361498E-02         -0.767947121058861E-03
  |    9         -0.111146051655637E-02          0.322093413206556E-03         -0.191603606009391E-02
  |   10          0.764355231961041E-03         -0.471168963530071E-02         -0.293594372201492E-02
  |   11          0.813037640187431E-03          0.698832058838112E-03          0.282521090264630E-02
  |   12          0.560305086840245E-02          0.151613339600708E-02          0.861773326670961E-03

  ------------------------------------ 
  Start decomposition of the XC Energy 
  ------------------------------------ 
  X and C from original XC functional choice 
  Hartree-Fock Energy :          0.000000000 Ha              0.000000000 eV
  X Energy            :      -1261.087847530 Ha         -34315.946307409 eV
  C Energy            :        -23.238927860 Ha           -632.363401379 eV
  Total XC Energy     :      -1284.326775390 Ha         -34948.309708788 eV
  ------------------------------------ 
  LDA X and C from self-consistent density 
  X Energy LDA        :      -1197.520484798 Ha         -32586.190358459 eV
  C Energy LDA        :        -42.068601708 Ha          -1144.744896464 eV
  ------------------------------------ 
  End decomposition of the XC Energy 
  ------------------------------------ 

------------------------------------------------------------
  Relaxation / MD: End force evaluation.       :  max(cpu_time)    wall_clock(cpu1)
  | Time for this force evaluation             :      947.157 s         947.911 s

------------------------------------------------------------
  Geometry optimization: Attempting to predict improved coordinates.

  +-------------------------------------------------------------------+
  | Generalized derivatives on lattice vectors [eV/A]                 |
  +-------------------------------------------------------------------+
  |lattice_vector      -0.00904912       0.00031481       0.00105565  |
  |lattice_vector       0.00030919       0.00993520       0.00059072  |
  |lattice_vector       0.00082854       0.00047206      -0.00627366  |
  +-------------------------------------------------------------------+
  | Forces on lattice vectors cleaned from atomic contributions [eV/A]|
  +-------------------------------------------------------------------+
  |lattice_vector       0.00904912      -0.00031481      -0.00105565  |
  |lattice_vector      -0.00030919      -0.00993520      -0.00059072  |
  |lattice_vector      -0.00082854      -0.00047206       0.00627366  |
  +-------------------------------------------------------------------+
  Symmetrized total atomic cartesian forces [eV/Ang]:
  |   1     0.1726043175E-02    -0.1853924984E-02     0.2502753547E-02
  |   2    -0.1824223896E-02    -0.1978728525E-02    -0.3394332089E-02
  |   3    -0.2598371904E-02     0.4850022387E-03     0.8573769724E-03
  |   4     0.2006904592E-02     0.7710428343E-04    -0.1910144744E-02
  |   5     0.9734824798E-03    -0.1547301680E-02     0.1970106648E-02
  |   6    -0.1943935580E-02     0.3284060235E-02     0.3651767661E-02
  |   7    -0.9136361366E-03     0.2536847255E-02    -0.1744585321E-02
  |   8    -0.3495245954E-02     0.1171571944E-02    -0.7679471211E-03
  |   9    -0.1111460517E-02     0.3220934132E-03    -0.1916036060E-02
  |  10     0.7643552320E-03    -0.4711689635E-02    -0.2935943722E-02
  |  11     0.8130376402E-03     0.6988320588E-03     0.2825210903E-02
  |  12     0.5603050868E-02     0.1516133396E-02     0.8617733267E-03
  +-------------------------------------------------------------------+
  | Symmetrized forces on lattice vectors cleaned from symmetrized
  | atomic contributions [eV/A]|
  +-------------------------------------------------------------------+
  |lattice_vector       0.00904912       0.00000000       0.00000000  |
  |lattice_vector       0.00000000      -0.00993520       0.00000000  |
  |lattice_vector       0.00000000       0.00000000       0.00627366  |
  +-------------------------------------------------------------------+
  Removing unitary transformations (pure translations, rotations) from forces on atoms.
  Atomic forces before filtering:
  | Net force on center of mass :   0.000000E+00 -0.871124E-18 -0.522674E-18 eV/A
  Atomic forces after filtering:
  | Net force on center of mass :   0.139380E-17 -0.871124E-18  0.174225E-18 eV/A
  Net remaining forces (excluding translations, rotations) in present geometry:
  || Forces on atoms   || =   0.560305E-02 eV/A.
  || Forces on lattice || =   0.993520E-02 eV/A^3.
  Maximum force component is  0.993520E-02 eV/A.
  Present geometry is converged.

  Symmetry-reduced parameters:
  | atomic   1          0.502304243904349E+00
  | atomic   2          0.237993367209870E-02
  | atomic   3          0.207301725264860E-02
  | atomic   4          0.236968405551721E-02
  | atomic   5          0.238650058229046E-02
  | atomic   6          0.502747645564786E+00
  | atomic   7          0.249983533603831E-02
  | atomic   8          0.502364307398693E+00
  | atomic   9          0.214438934242609E-02
  | atomic  10          0.502422462155934E+00
  | atomic  11          0.502381394370623E+00
  | atomic  12          0.502672698999798E+00
  | atomic  13          0.614600267972508E+00
  | atomic  14          0.120692225097081E+00
  | atomic  15          0.405218837630897E+00
  | atomic  16          0.890316723473822E+00
  | atomic  17          0.884152970012489E+00
  | atomic  18          0.904980401553830E+00
  | atomic  19          0.114548886249039E+00
  | atomic  20          0.384166344639850E+00
  | atomic  21          0.599827225697574E+00
  | atomic  22          0.390301110012942E+00
  | atomic  23          0.620658323850107E+00
  | atomic  24          0.996047961863583E-01
  | atomic  25          0.390311342625509E+00
  | atomic  26          0.884201335828554E+00
  | atomic  27          0.599829754750027E+00
  | atomic  28          0.114561383360717E+00
  | atomic  29          0.120719591116036E+00
  | atomic  30          0.996180892650078E-01
  | atomic  31          0.890212087793831E+00
  | atomic  32          0.620657153463960E+00
  | atomic  33          0.405221322199803E+00
  | atomic  34          0.614477816239553E+00
  | atomic  35          0.384165794542264E+00
  | atomic  36          0.904987687889380E+00
  | lattice  1          0.585301746371702E+01
  | lattice  2          0.595939787230006E+01
  | lattice  3          0.745738146674004E+01
  Symmetry-reduced forces:
  | atomic   1          0.101025608438615E-01
  | atomic   2         -0.110482766070024E-01
  | atomic   3          0.186639879170719E-01
  | atomic   4         -0.106772143184139E-01
  | atomic   5         -0.117920305595530E-01
  | atomic   6         -0.253128292149482E-01
  | atomic   7         -0.152083161330558E-01
  | atomic   8          0.289032130913314E-02
  | atomic   9          0.639378714432722E-02
  | atomic  10          0.117464476272575E-01
  | atomic  11          0.459495102601756E-03
  | atomic  12         -0.142446780126469E-01
  | atomic  13          0.569780995481526E-02
  | atomic  14         -0.922098633896546E-02
  | atomic  15          0.146918368015776E-01
  | atomic  16         -0.113778888981104E-01
  | atomic  17          0.195710215795174E-01
  | atomic  18          0.272326244773241E-01
  | atomic  19         -0.534752826280067E-02
  | atomic  20          0.151180821336247E-01
  | atomic  21         -0.130100382404626E-01
  | atomic  22         -0.204577356105993E-01
  | atomic  23          0.698186334802558E-02
  | atomic  24         -0.572687462802072E-02
  | atomic  25         -0.650539781363639E-02
  | atomic  26          0.191948280134501E-02
  | atomic  27         -0.142886118041500E-01
  | atomic  28          0.447378452115145E-02
  | atomic  29         -0.280788331875493E-01
  | atomic  30         -0.218944522999459E-01
  | atomic  31          0.475872350667631E-02
  | atomic  32          0.416461828453492E-02
  | atomic  33          0.210686754250264E-01
  | atomic  34          0.327947545828544E-01
  | atomic  35          0.903524213428764E-02
  | atomic  36          0.642657243484693E-02
  | lattice  1          0.904911742327571E-02
  | lattice  2         -0.993519740386398E-02
  | lattice  3          0.627366312104424E-02
------------------------------------------------------------
  Final atomic structure:
                         x [A]             y [A]             z [A]
  lattice_vector         5.85301746        0.00000000        0.00000000
  lattice_vector         0.00000000        5.95939787        0.00000000
  lattice_vector         0.00000000        0.00000000        7.45738147

            atom        -2.91302195        0.01418297        0.01545928  Pd
            atom         0.01386980        0.01422211       -3.70820049  Pd
            atom         0.01463158       -2.96560909        0.01599153  Pd
            atom        -2.91233002       -2.96550726       -3.70875940  Pd
            atom        -2.25575136        0.71925299        3.02187145  Se
            atom        -0.64197813       -0.69037854       -0.70859739  Se
            atom         0.67045663        2.28940010       -2.98424103  Se
            atom         2.28443921       -2.26064798        0.74279096  Se
            atom         2.28449910       -0.69009031       -2.98422217  Se
            atom         0.67052978        0.71941607        0.74289009  Se
            atom        -0.64259057       -2.26065495        3.02188998  Se
            atom        -2.25646807        2.28939682       -0.70854306  Se

  Fractional coordinates:
                         L1                L2                L3
       atom_frac        -0.49769576        0.00237993        0.00207302  Pd
       atom_frac         0.00236968        0.00238650       -0.49725235  Pd
       atom_frac         0.00249984       -0.49763569        0.00214439  Pd
       atom_frac        -0.49757754       -0.49761861       -0.49732730  Pd
       atom_frac        -0.38539973        0.12069223        0.40521884  Se
       atom_frac        -0.10968328       -0.11584703       -0.09501960  Se
       atom_frac         0.11454889        0.38416634       -0.40017277  Se
       atom_frac         0.39030111       -0.37934168        0.09960480  Se
       atom_frac         0.39031134       -0.11579866       -0.40017025  Se
       atom_frac         0.11456138        0.12071959        0.09961809  Se
       atom_frac        -0.10978791       -0.37934285        0.40522132  Se
       atom_frac        -0.38552218        0.38416579       -0.09501231  Se
------------------------------------------------------------

------------------------------------------------------------------------------
  Final output of selected total energy values:

  The following output summarizes some interesting total energy values
  at the end of a run (AFTER all relaxation, molecular dynamics, etc.).

  | Total energy of the DFT / Hartree-Fock s.c.f. calculation      :       -1087911.114895105 eV
  | Final zero-broadening corrected energy (caution - metals only) :       -1087911.115984174 eV
  | For reference only, the value of 1 Hartree used in FHI-aims is :             27.211384500 eV
  | For reference only, the overall average (free atom contribution
  | + realspace contribution) of the electrostatic potential after
  | s.c.f. convergence is                                          :            -17.035758200 eV

  Before relying on these values, please be sure to understand exactly which
  total energy value is referred to by a given number. Different objects may
  all carry the same name 'total energy'. Definitions:

  Total energy of the DFT / Hartree-Fock s.c.f. calculation:
  | Note that this energy does not include ANY quantities calculated after the
  | s.c.f. cycle, in particular not ANY RPA, MP2, etc. many-body perturbation terms.

  Final zero-broadening corrected energy:
  | For metallic systems only, a broadening of the occupation numbers at the Fermi
  | level can be extrapolated back to zero broadening by an electron-gas inspired
  | formula. For all systems that are not real metals, this value can be
  | meaningless and should be avoided.

------------------------------------------------------------------------------
  Methods described in the following list of references were used in this FHI-aims run.
  If you publish the results, please make sure to cite these reference if they apply.
  FHI-aims is an academic code, and for our developers (often, Ph.D. students
  and postdocs), scientific credit in the community is essential.
  Thank you for helping us!

  For any use of FHI-aims, please cite:

    Volker Blum, Ralf Gehrke, Felix Hanke, Paula Havu, Ville Havu,
    Xinguo Ren, Karsten Reuter, and Matthias Scheffler
    'Ab initio molecular simulations with numeric atom-centered orbitals'
    Computer Physics Communications 180, 2175-2196 (2009)
    http://dx.doi.org/10.1016/j.cpc.2009.06.022


  For the analytical stress tensor used in your run, please cite:

    Franz Knuth, Christian Carbogno, Viktor Atalla, Volker Blum, Matthias Scheffler
    'All-electron formalism for total energy strain derivatives and
    stress tensor components for numeric atom-centered orbitals'
    Computer Physics Communications 190, 33-50 (2015).
    http://dx.doi.org/10.1016/j.cpc.2015.01.003


  The provided symmetry information was generated with SPGlib:

    Atsushi Togo, Yusuke Seto, Dimitar Pashov
    SPGlib 1.7.3 obtained from http://spglib.sourceforge.net
    Copyright (C) 2008 Atsushi Togo


  The ELSI infrastructure was used in your run to solve the Kohn-Sham electronic structure.
  Please check out http://elsi-interchange.org to learn more.
  If scalability is important for your project, please acknowledge ELSI by citing:

    V. W-z. Yu, F. Corsetti, A. Garcia, W. P. Huhn, M. Jacquelin, W. Jia,
    B. Lange, L. Lin, J. Lu, W. Mi, A. Seifitokaldani, A. Vazquez-Mayagoitia,
    C. Yang, H. Yang, and V. Blum
    'ELSI: A unified software interface for Kohn-Sham electronic structure solvers'
    Computer Physics Communications 222, 267-285 (2018).
    http://dx.doi.org/10.1016/j.cpc.2017.09.007


  For the real-space grid partitioning and parallelization used in this calculation, please cite:

    Ville Havu, Volker Blum, Paula Havu, and Matthias Scheffler,
    'Efficient O(N) integration for all-electron electronic structure calculation'
    'using numerically tabulated basis functions'
    Journal of Computational Physics 228, 8367-8379 (2009).
    http://dx.doi.org/10.1016/j.jcp.2009.08.008

  Of course, there are many other important community references, e.g., those cited in the
  above references. Our list is limited to references that describe implementations in the
  FHI-aims code. The reason is purely practical (length of this list) - please credit others as well.

------------------------------------------------------------
          Leaving FHI-aims.
          Date     :  20200420, Time     :  214157.768

          Computational steps:
          | Number of self-consistency cycles          :           68
          | Number of SCF (re)initializations          :            3
          | Number of relaxation steps                 :            2

          Detailed time accounting                     :  max(cpu_time)    wall_clock(cpu1)
          | Total time                                 :     3310.869 s        3311.986 s
          | Preparation time                           :        0.554 s           0.586 s
          | Boundary condition initalization           :        0.510 s           0.511 s
          | Grid partitioning                          :        1.029 s           1.029 s
          | Preloading free-atom quantities on grid    :        2.311 s           2.310 s
          | Free-atom superposition energy             :        0.415 s           0.415 s
          | Total time for integrations                :      193.571 s         193.583 s
          | Total time for solution of K.-S. equations :     1790.036 s        1791.394 s
          | Total time for EV reorthonormalization     :       16.872 s          16.750 s
          | Total time for density & force components  :      987.923 s         987.935 s
          | Total time for mixing & preconditioning    :       46.656 s          46.667 s
          | Total time for Hartree multipole update    :        0.325 s           0.322 s
          | Total time for Hartree multipole sum       :      150.998 s         151.006 s
          | Total time for total energy evaluation     :        2.644 s           2.671 s
          | Total time for scaled ZORA corrections     :        0.000 s           0.000 s
          | Total time for vdW correction              :      112.746 s         112.766 s

          Partial memory accounting:
          | Residual value for overall tracked memory usage across tasks:     0.000000 MB (should be 0.000000 MB)
          | Peak values for overall tracked memory usage:
          |   Minimum:      806.524 MB (on task 19 after allocating d_wave)
          |   Maximum:      811.926 MB (on task  5 after allocating d_wave)
          |   Average:      810.006 MB
          | Largest tracked array allocation:
          |   Minimum:      380.007 MB (KS_eigenvector_complex on task  0)
          |   Maximum:      382.107 MB (KS_eigenvector_complex on task  1)
          |   Average:      381.407 MB
          Note:  These values currently only include a subset of arrays which are explicitly tracked.
          The "true" memory usage will be greater.

          Have a nice day.
------------------------------------------------------------
