nqpoint: 200    
npath: 4      
segment_nqpoint:
- 50
- 50
- 50
- 50
labels:
- [ 'G', 'X' ]
- [ 'X', 'U|K' ]
- [ 'U|K', 'G' ]
- [ 'G', 'L' ]
reciprocal_lattice:
- [  -0.18404310,   0.18404174,   0.18404174 ] # a*
- [   0.18404174,  -0.18404309,   0.18404174 ] # b*
- [   0.18404174,   0.18404174,  -0.18404309 ] # c*
natom: 2      
lattice:
- [     0.000019985270000,     2.716785059356000,     2.716785059420000 ] # a
- [     2.716784969786000,     0.000019985515000,     2.716785059175000 ] # b
- [     2.716784969848000,     2.716785059173000,     0.000019985453000 ] # c
points:
- symbol: Si # 1
  coordinates: [  0.000000163803000,  0.000000163796000,  0.000000163848000 ]
  mass: 28.085000
- symbol: Si # 2
  coordinates: [  0.249999836197000,  0.249999836204001,  0.249999836152999 ]
  mass: 28.085000
supercell_matrix:
- [    4,    0,    0 ]
- [    0,    4,    0 ]
- [    0,    0,    4 ]

phonon:
- q-position: [    0.0000000,    0.0000000,    0.0000000 ]
  distance:    0.0000000
  band:
  - # 1
    frequency:   -0.0000794123
  - # 2
    frequency:   -0.0000794114
  - # 3
    frequency:   -0.0000002996
  - # 4
    frequency:   15.2662849446
  - # 5
    frequency:   15.2663643551
  - # 6
    frequency:   15.2664437672

- q-position: [    0.0102041,    0.0000000,    0.0102041 ]
  distance:    0.0037560
  band:
  - # 1
    frequency:    0.0602050975
  - # 2
    frequency:    0.0602069983
  - # 3
    frequency:    0.1762027221
  - # 4
    frequency:   15.2650959633
  - # 5
    frequency:   15.2673393513
  - # 6
    frequency:   15.2674516349

- q-position: [    0.0204082,    0.0000000,    0.0204082 ]
  distance:    0.0075119
  band:
  - # 1
    frequency:    0.1207550286
  - # 2
    frequency:    0.1207570711
  - # 3
    frequency:    0.3530743219
  - # 4
    frequency:   15.2612987189
  - # 5
    frequency:   15.2704390260
  - # 6
    frequency:   15.2705513583

- q-position: [    0.0306122,    0.0000000,    0.0306122 ]
  distance:    0.0112679
  band:
  - # 1
    frequency:    0.1819810475
  - # 2
    frequency:    0.1819833163
  - # 3
    frequency:    0.5312723467
  - # 4
    frequency:   15.2549751340
  - # 5
    frequency:   15.2756364683
  - # 6
    frequency:   15.2757488405

- q-position: [    0.0408163,    0.0000000,    0.0408163 ]
  distance:    0.0150238
  band:
  - # 1
    frequency:    0.2441936185
  - # 2
    frequency:    0.2441961776
  - # 3
    frequency:    0.7114315842
  - # 4
    frequency:   15.2461356106
  - # 5
    frequency:   15.2829762253
  - # 6
    frequency:   15.2830886519

- q-position: [    0.0510204,    0.0000000,    0.0510204 ]
  distance:    0.0187798
  band:
  - # 1
    frequency:    0.3076717828
  - # 2
    frequency:    0.3076746820
  - # 3
    frequency:    0.8941537917
  - # 4
    frequency:   15.2347931370
  - # 5
    frequency:   15.2925193754
  - # 6
    frequency:   15.2926318723

- q-position: [    0.0612245,    0.0000000,    0.0612245 ]
  distance:    0.0225357
  band:
  - # 1
    frequency:    0.3726555102
  - # 2
    frequency:    0.3726587892
  - # 3
    frequency:    1.0799983293
  - # 4
    frequency:   15.2209632013
  - # 5
    frequency:   15.3043415011
  - # 6
    frequency:   15.3044540850

- q-position: [    0.0714286,    0.0000000,    0.0714286 ]
  distance:    0.0262917
  band:
  - # 1
    frequency:    0.4393400325
  - # 2
    frequency:    0.4393437248
  - # 3
    frequency:    1.2694740766
  - # 4
    frequency:   15.2046630340
  - # 5
    frequency:   15.3185304676
  - # 6
    frequency:   15.3186431560

- q-position: [    0.0816327,    0.0000000,    0.0816327 ]
  distance:    0.0300476
  band:
  - # 1
    frequency:    0.5078722727
  - # 2
    frequency:    0.5078764071
  - # 3
    frequency:    1.4630327832
  - # 4
    frequency:   15.1859106608
  - # 5
    frequency:   15.3351837908
  - # 6
    frequency:   15.3352966017

- q-position: [    0.0918367,    0.0000000,    0.0918367 ]
  distance:    0.0338036
  band:
  - # 1
    frequency:    0.5783493003
  - # 2
    frequency:    0.5783539026
  - # 3
    frequency:    1.6610639307
  - # 4
    frequency:   15.1647238210
  - # 5
    frequency:   15.3544056151
  - # 6
    frequency:   15.3545185673

- q-position: [    0.1020408,    0.0000000,    0.1020408 ]
  distance:    0.0375595
  band:
  - # 1
    frequency:    0.6508186168
  - # 2
    frequency:    0.6508237107
  - # 3
    frequency:    1.8638911096
  - # 4
    frequency:   15.1411187763
  - # 5
    frequency:   15.3763033426
  - # 6
    frequency:   15.3764164560

- q-position: [    0.1122449,    0.0000000,    0.1122449 ]
  distance:    0.0413155
  band:
  - # 1
    frequency:    0.7252799889
  - # 2
    frequency:    0.7252855959
  - # 3
    frequency:    2.0717698514
  - # 4
    frequency:   15.1151090375
  - # 5
    frequency:   15.4009839704
  - # 6
    frequency:   15.4010972654

- q-position: [    0.1224490,    0.0000000,    0.1224490 ]
  distance:    0.0450714
  band:
  - # 1
    frequency:    0.8016885035
  - # 2
    frequency:    0.8016946435
  - # 3
    frequency:    2.2848868054
  - # 4
    frequency:   15.0867040350
  - # 5
    frequency:   15.4285501971
  - # 6
    frequency:   15.4286636948

- q-position: [    0.1326531,    0.0000000,    0.1326531 ]
  distance:    0.0488274
  band:
  - # 1
    frequency:    0.8799585136
  - # 2
    frequency:    0.8799652048
  - # 3
    frequency:    2.5033601177
  - # 4
    frequency:   15.0559077604
  - # 5
    frequency:   15.4590963750
  - # 6
    frequency:   15.4592100975

- q-position: [    0.1428571,    0.0000000,    0.1428571 ]
  distance:    0.0525834
  band:
  - # 1
    frequency:    0.9599681592
  - # 2
    frequency:    0.9599754180
  - # 3
    frequency:    2.7272408475
  - # 4
    frequency:   15.0227174094
  - # 5
    frequency:   15.4927043894
  - # 6
    frequency:   15.4928183590

- q-position: [    0.1530612,    0.0000000,    0.1530612 ]
  distance:    0.0563393
  band:
  - # 1
    frequency:    1.0415641838
  - # 2
    frequency:    1.0415720249
  - # 3
    frequency:    2.9565152520
  - # 4
    frequency:   14.9871220542
  - # 5
    frequency:   15.5294395543
  - # 6
    frequency:   15.5295537942

- q-position: [    0.1632653,    0.0000000,    0.1632653 ]
  distance:    0.0600953
  band:
  - # 1
    frequency:    1.1245668084
  - # 2
    frequency:    1.1245752447
  - # 3
    frequency:    3.1911077720
  - # 4
    frequency:   14.9491013767
  - # 5
    frequency:   15.5693466218
  - # 6
    frequency:   15.5694611553

- q-position: [    0.1734694,    0.0000000,    0.1734694 ]
  distance:    0.0638512
  band:
  - # 1
    frequency:    1.2087744702
  - # 2
    frequency:    1.2087835127
  - # 3
    frequency:    3.4308845650
  - # 4
    frequency:   14.9086244897
  - # 5
    frequency:   15.6124460008
  - # 6
    frequency:   15.6125608513

- q-position: [    0.1836735,    0.0000000,    0.1836735 ]
  distance:    0.0676072
  band:
  - # 1
    frequency:    1.2939682747
  - # 2
    frequency:    1.2939779323
  - # 3
    frequency:    3.6756574434
  - # 4
    frequency:   14.8656488758
  - # 5
    frequency:   15.6587302857
  - # 6
    frequency:   15.6588454767

- q-position: [    0.1938776,    0.0000000,    0.1938776 ]
  distance:    0.0713631
  band:
  - # 1
    frequency:    1.3799160547
  - # 2
    frequency:    1.3799263346
  - # 3
    frequency:    3.9251880998
  - # 4
    frequency:   14.8201194686
  - # 5
    frequency:   15.7081611886
  - # 6
    frequency:   15.7082767432

- q-position: [    0.2040816,    0.0000000,    0.2040816 ]
  distance:    0.0751191
  band:
  - # 1
    frequency:    1.4663759617
  - # 2
    frequency:    1.4663868688
  - # 3
    frequency:    4.1791925143
  - # 4
    frequency:   14.7719679020
  - # 5
    frequency:   15.7606669627
  - # 6
    frequency:   15.7607829035

- q-position: [    0.2142857,    0.0000000,    0.2142857 ]
  distance:    0.0788750
  band:
  - # 1
    frequency:    1.5530995520
  - # 2
    frequency:    1.5531110894
  - # 3
    frequency:    4.4373454604
  - # 4
    frequency:   14.7211119471
  - # 5
    frequency:   15.8161403943
  - # 6
    frequency:   15.8162567433

- q-position: [    0.2244898,    0.0000000,    0.2244898 ]
  distance:    0.0826310
  band:
  - # 1
    frequency:    1.6398343558
  - # 2
    frequency:    1.6398465244
  - # 3
    frequency:    4.6992850429
  - # 4
    frequency:   14.6674551556
  - # 5
    frequency:   15.8744374262
  - # 6
    frequency:   15.8745542040

- q-position: [    0.2346939,    0.0000000,    0.2346939 ]
  distance:    0.0863869
  band:
  - # 1
    frequency:    1.7263259442
  - # 2
    frequency:    1.7263387432
  - # 3
    frequency:    4.9646172125
  - # 4
    frequency:   14.6108867246
  - # 5
    frequency:   15.9353764576
  - # 6
    frequency:   15.9354936836

- q-position: [    0.2448980,    0.0000000,    0.2448980 ]
  distance:    0.0901429
  band:
  - # 1
    frequency:    1.8123195304
  - # 2
    frequency:    1.8123329567
  - # 3
    frequency:    5.2329202173
  - # 4
    frequency:   14.5512815915
  - # 5
    frequency:   15.9987383496
  - # 6
    frequency:   15.9988560418

- q-position: [    0.2551020,    0.0000000,    0.2551020 ]
  distance:    0.0938988
  band:
  - # 1
    frequency:    1.8975611554
  - # 2
    frequency:    1.8975752041
  - # 3
    frequency:    5.5037489600
  - # 4
    frequency:   14.4885007678
  - # 5
    frequency:   16.0642671425
  - # 6
    frequency:   16.0643853167

- q-position: [    0.2653061,    0.0000000,    0.2653061 ]
  distance:    0.0976548
  band:
  - # 1
    frequency:    1.9817985259
  - # 2
    frequency:    1.9818131901
  - # 3
    frequency:    5.7766392374
  - # 4
    frequency:   14.4223919113
  - # 5
    frequency:   16.1316714720
  - # 6
    frequency:   16.1317901420

- q-position: [    0.2755102,    0.0000000,    0.2755102 ]
  distance:    0.1014108
  band:
  - # 1
    frequency:    2.0647815752
  - # 2
    frequency:    2.0647968461
  - # 3
    frequency:    6.0511118463
  - # 4
    frequency:   14.3527901373
  - # 5
    frequency:   16.2006266534
  - # 6
    frequency:   16.2007458307

- q-position: [    0.2857143,    0.0000000,    0.2857143 ]
  distance:    0.1051667
  band:
  - # 1
    frequency:    2.1462628262
  - # 2
    frequency:    2.1462786932
  - # 3
    frequency:    6.3266765427
  - # 4
    frequency:   14.2795190600
  - # 5
    frequency:   16.2707773844
  - # 6
    frequency:   16.2708970777

- q-position: [    0.2959184,    0.0000000,    0.2959184 ]
  distance:    0.1089227
  band:
  - # 1
    frequency:    2.2259976318
  - # 2
    frequency:    2.2260140824
  - # 3
    frequency:    6.6028358466
  - # 4
    frequency:   14.2023920559
  - # 5
    frequency:   16.3417410022
  - # 6
    frequency:   16.3418612175

- q-position: [    0.3061224,    0.0000000,    0.3061224 ]
  distance:    0.1126786
  band:
  - # 1
    frequency:    2.3037443657
  - # 2
    frequency:    2.3037613855
  - # 3
    frequency:    6.8790886849
  - # 4
    frequency:   14.1212137340
  - # 5
    frequency:   16.4131112203
  - # 6
    frequency:   16.4132319607

- q-position: [    0.3163265,    0.0000000,    0.3163265 ]
  distance:    0.1164346
  band:
  - # 1
    frequency:    2.3792646273
  - # 2
    frequency:    2.3792822003
  - # 3
    frequency:    7.1549338694
  - # 4
    frequency:   14.0357815966
  - # 5
    frequency:   16.4844622613
  - # 6
    frequency:   16.4845835265

- q-position: [    0.3265306,    0.0000000,    0.3265306 ]
  distance:    0.1201905
  band:
  - # 1
    frequency:    2.4523235164
  - # 2
    frequency:    2.4523416247
  - # 3
    frequency:    7.4298734050
  - # 4
    frequency:   13.9458878702
  - # 5
    frequency:   16.5553532968
  - # 6
    frequency:   16.5554750835

- q-position: [    0.3367347,    0.0000000,    0.3367347 ]
  distance:    0.1239465
  band:
  - # 1
    frequency:    2.5226900172
  - # 2
    frequency:    2.5227086412
  - # 3
    frequency:    7.7034156251
  - # 4
    frequency:   13.8513214844
  - # 5
    frequency:   16.6253331069
  - # 6
    frequency:   16.6254554084

- q-position: [    0.3469388,    0.0000000,    0.3469388 ]
  distance:    0.1277024
  band:
  - # 1
    frequency:    2.5901375238
  - # 2
    frequency:    2.5901566422
  - # 3
    frequency:    7.9750781516
  - # 4
    frequency:   13.7518701741
  - # 5
    frequency:   16.6939448699
  - # 6
    frequency:   16.6940676761

- q-position: [    0.3571429,    0.0000000,    0.3571429 ]
  distance:    0.1314584
  band:
  - # 1
    frequency:    2.6544445194
  - # 2
    frequency:    2.6544641094
  - # 3
    frequency:    8.2443906770
  - # 4
    frequency:   13.6473226800
  - # 5
    frequency:   16.7607310009
  - # 6
    frequency:   16.7608542984

- q-position: [    0.3673469,    0.0000000,    0.3673469 ]
  distance:    0.1352143
  band:
  - # 1
    frequency:    2.7153954164
  - # 2
    frequency:    2.7154154533
  - # 3
    frequency:    8.5108975646
  - # 4
    frequency:   13.5374710200
  - # 5
    frequency:   16.8252379610
  - # 6
    frequency:   16.8253617330

- q-position: [    0.3775510,    0.0000000,    0.3775510 ]
  distance:    0.1389703
  band:
  - # 1
    frequency:    2.7727815459
  - # 2
    frequency:    2.7728020037
  - # 3
    frequency:    8.7741602648
  - # 4
    frequency:   13.4221128056
  - # 5
    frequency:   16.8870209690
  - # 6
    frequency:   16.8871451955

- q-position: [    0.3877551,    0.0000000,    0.3877551 ]
  distance:    0.1427262
  band:
  - # 1
    frequency:    2.8264022819
  - # 2
    frequency:    2.8264231331
  - # 3
    frequency:    9.0337595428
  - # 4
    frequency:   13.3010535752
  - # 5
    frequency:   16.9456485558
  - # 6
    frequency:   16.9457732136

- q-position: [    0.3979592,    0.0000000,    0.3979592 ]
  distance:    0.1464822
  band:
  - # 1
    frequency:    2.8760662735
  - # 2
    frequency:    2.8760874890
  - # 3
    frequency:    9.2892975161
  - # 4
    frequency:   13.1741091195
  - # 5
    frequency:   17.0007069073
  - # 6
    frequency:   17.0008319701

- q-position: [    0.4081633,    0.0000000,    0.4081633 ]
  distance:    0.1502382
  band:
  - # 1
    frequency:    2.9215927550
  - # 2
    frequency:    2.9216143045
  - # 3
    frequency:    9.5403994965
  - # 4
    frequency:   13.0411077719
  - # 5
    frequency:   17.0518039565
  - # 6
    frequency:   17.0519293952

- q-position: [    0.4183673,    0.0000000,    0.4183673 ]
  distance:    0.1539941
  band:
  - # 1
    frequency:    2.9628128990
  - # 2
    frequency:    2.9628347510
  - # 3
    frequency:    9.7867156331
  - # 4
    frequency:   12.9018926405
  - # 5
    frequency:   17.0985731863
  - # 6
    frequency:   17.0986989690

- q-position: [    0.4285714,    0.0000000,    0.4285714 ]
  distance:    0.1577501
  band:
  - # 1
    frequency:    2.9995711773
  - # 2
    frequency:    2.9995932990
  - # 3
    frequency:   10.0279223547
  - # 4
    frequency:   12.7563237593
  - # 5
    frequency:   17.1406771188
  - # 6
    frequency:   17.1408032113

- q-position: [    0.4387755,    0.0000000,    0.4387755 ]
  distance:    0.1615060
  band:
  - # 1
    frequency:    3.0317266920
  - # 2
    frequency:    3.0317490497
  - # 3
    frequency:   10.2637236046
  - # 4
    frequency:   12.6042801355
  - # 5
    frequency:   17.1778104679
  - # 6
    frequency:   17.1779368336

- q-position: [    0.4489796,    0.0000000,    0.4489796 ]
  distance:    0.1652620
  band:
  - # 1
    frequency:    3.0591544421
  - # 2
    frequency:    3.0591770011
  - # 3
    frequency:   10.4938518685
  - # 4
    frequency:   12.4456616761
  - # 5
    frequency:   17.2097029417
  - # 6
    frequency:   17.2098295419

- q-position: [    0.4591837,    0.0000000,    0.4591837 ]
  distance:    0.1690179
  band:
  - # 1
    frequency:    3.0817464926
  - # 2
    frequency:    3.0817692174
  - # 3
    frequency:   10.7180689897
  - # 4
    frequency:   12.2803909732
  - # 5
    frequency:   17.2361216823
  - # 6
    frequency:   17.2362484769

- q-position: [    0.4693878,    0.0000000,    0.4693878 ]
  distance:    0.1727739
  band:
  - # 1
    frequency:    3.0994130172
  - # 2
    frequency:    3.0994358717
  - # 3
    frequency:   10.9361667707
  - # 4
    frequency:   12.1084149358
  - # 5
    frequency:   17.2568733378
  - # 6
    frequency:   17.2570002850

- q-position: [    0.4795918,    0.0000000,    0.4795918 ]
  distance:    0.1765298
  band:
  - # 1
    frequency:    3.1120831868
  - # 2
    frequency:    3.1121061343
  - # 3
    frequency:   11.1479673591
  - # 4
    frequency:   11.9297062508
  - # 5
    frequency:   17.2718057600
  - # 6
    frequency:   17.2719328171

- q-position: [    0.4897959,    0.0000000,    0.4897959 ]
  distance:    0.1802858
  band:
  - # 1
    frequency:    3.1197058842
  - # 2
    frequency:    3.1197288877
  - # 3
    frequency:   11.3533234171
  - # 4
    frequency:   11.7442646649
  - # 5
    frequency:   17.2808093269
  - # 6
    frequency:   17.2809364502

- q-position: [    0.5000000,    0.0000000,    0.5000000 ]
  distance:    0.1840417
  band:
  - # 1
    frequency:    3.1222502267
  - # 2
    frequency:    3.1222732488
  - # 3
    frequency:   11.5521178849
  - # 4
    frequency:   11.5521182639
  - # 5
    frequency:   17.2838178870
  - # 6
    frequency:   17.2839450325

- q-position: [    0.5000000,    0.0000000,    0.5000000 ]
  distance:    0.1840417
  band:
  - # 1
    frequency:    3.1222502267
  - # 2
    frequency:    3.1222732488
  - # 3
    frequency:   11.5521178849
  - # 4
    frequency:   11.5521182639
  - # 5
    frequency:   17.2838178870
  - # 6
    frequency:   17.2839450325

- q-position: [    0.5025510,    0.0051020,    0.5025510 ]
  distance:    0.1853697
  band:
  - # 1
    frequency:    3.1221554517
  - # 2
    frequency:    3.1238420691
  - # 3
    frequency:   11.5521564562
  - # 4
    frequency:   11.5522061919
  - # 5
    frequency:   17.2832429808
  - # 6
    frequency:   17.2837085106

- q-position: [    0.5051020,    0.0102041,    0.5051020 ]
  distance:    0.1866976
  band:
  - # 1
    frequency:    3.1218021596
  - # 2
    frequency:    3.1286091325
  - # 3
    frequency:   11.5522722689
  - # 4
    frequency:   11.5524698362
  - # 5
    frequency:   17.2815188616
  - # 6
    frequency:   17.2829990738

- q-position: [    0.5076531,    0.0153061,    0.5076531 ]
  distance:    0.1880255
  band:
  - # 1
    frequency:    3.1212133959
  - # 2
    frequency:    3.1365264285
  - # 3
    frequency:   11.5524675025
  - # 4
    frequency:   11.5529068934
  - # 5
    frequency:   17.2786473275
  - # 6
    frequency:   17.2818171111

- q-position: [    0.5102041,    0.0204082,    0.5102041 ]
  distance:    0.1893534
  band:
  - # 1
    frequency:    3.1203892464
  - # 2
    frequency:    3.1475526903
  - # 3
    frequency:   11.5527454752
  - # 4
    frequency:   11.5535138357
  - # 5
    frequency:   17.2746313773
  - # 6
    frequency:   17.2801632700

- q-position: [    0.5127551,    0.0255102,    0.5127551 ]
  distance:    0.1906814
  band:
  - # 1
    frequency:    3.1193298305
  - # 2
    frequency:    3.1616310236
  - # 3
    frequency:   11.5531108294
  - # 4
    frequency:   11.5542857220
  - # 5
    frequency:   17.2694752155
  - # 6
    frequency:   17.2780384566

- q-position: [    0.5153061,    0.0306122,    0.5153061 ]
  distance:    0.1920093
  band:
  - # 1
    frequency:    3.1180353019
  - # 2
    frequency:    3.1786897433
  - # 3
    frequency:   11.5535695278
  - # 4
    frequency:   11.5552161944
  - # 5
    frequency:   17.2631842570
  - # 6
    frequency:   17.2754438350

- q-position: [    0.5178571,    0.0357143,    0.5178571 ]
  distance:    0.1933372
  band:
  - # 1
    frequency:    3.1165058484
  - # 2
    frequency:    3.1986433961
  - # 3
    frequency:   11.5541288493
  - # 4
    frequency:   11.5562974754
  - # 5
    frequency:   17.2557651345
  - # 6
    frequency:   17.2723808266

- q-position: [    0.5204082,    0.0408163,    0.5204082 ]
  distance:    0.1946651
  band:
  - # 1
    frequency:    3.1147416916
  - # 2
    frequency:    3.2213939291
  - # 3
    frequency:   11.5547973834
  - # 4
    frequency:   11.5575203632
  - # 5
    frequency:   17.2472257069
  - # 6
    frequency:   17.2688511092

- q-position: [    0.5229592,    0.0459184,    0.5229592 ]
  distance:    0.1959931
  band:
  - # 1
    frequency:    3.1127430871
  - # 2
    frequency:    3.2468319681
  - # 3
    frequency:   11.5555850225
  - # 4
    frequency:   11.5588742264
  - # 5
    frequency:   17.2375750694
  - # 6
    frequency:   17.2648566162

- q-position: [    0.5255102,    0.0510204,    0.5255102 ]
  distance:    0.1973210
  band:
  - # 1
    frequency:    3.1105103242
  - # 2
    frequency:    3.2748381643
  - # 3
    frequency:   11.5565029534
  - # 4
    frequency:   11.5603469992
  - # 5
    frequency:   17.2268235650
  - # 6
    frequency:   17.2603995351

- q-position: [    0.5280612,    0.0561224,    0.5280612 ]
  distance:    0.1986489
  band:
  - # 1
    frequency:    3.1080437261
  - # 2
    frequency:    3.3052845720
  - # 3
    frequency:   11.5575636462
  - # 4
    frequency:   11.5619251739
  - # 5
    frequency:   17.2149827971
  - # 6
    frequency:   17.2554823066

- q-position: [    0.5306122,    0.0612245,    0.5306122 ]
  distance:    0.1999768
  band:
  - # 1
    frequency:    3.1053436495
  - # 2
    frequency:    3.3380360217
  - # 3
    frequency:   11.5587808412
  - # 4
    frequency:   11.5635937947
  - # 5
    frequency:   17.2020656440
  - # 6
    frequency:   17.2501076231

- q-position: [    0.5331633,    0.0663265,    0.5331633 ]
  distance:    0.2013048
  band:
  - # 1
    frequency:    3.1024104845
  - # 2
    frequency:    3.3729514581
  - # 3
    frequency:   11.5601695339
  - # 4
    frequency:   11.5653364499
  - # 5
    frequency:   17.1880862741
  - # 6
    frequency:   17.2442784269

- q-position: [    0.5357143,    0.0714286,    0.5357143 ]
  distance:    0.2026327
  band:
  - # 1
    frequency:    3.0992446548
  - # 2
    frequency:    3.4098852170
  - # 3
    frequency:   11.5617459559
  - # 4
    frequency:   11.5671352634
  - # 5
    frequency:   17.1730601628
  - # 6
    frequency:   17.2379979086

- q-position: [    0.5382653,    0.0765306,    0.5382653 ]
  distance:    0.2039606
  band:
  - # 1
    frequency:    3.0958466171
  - # 2
    frequency:    3.4486882232
  - # 3
    frequency:   11.5635275541
  - # 4
    frequency:   11.5689708865
  - # 5
    frequency:   17.1570041095
  - # 6
    frequency:   17.2312695052

- q-position: [    0.5408163,    0.0816327,    0.5408163 ]
  distance:    0.2052885
  band:
  - # 1
    frequency:    3.0922168613
  - # 2
    frequency:    3.4892090918
  - # 3
    frequency:   11.5655329650
  - # 4
    frequency:   11.5708224891
  - # 5
    frequency:   17.1399362570
  - # 6
    frequency:   17.2240968980

- q-position: [    0.5433673,    0.0867347,    0.5433673 ]
  distance:    0.2066165
  band:
  - # 1
    frequency:    3.0883559100
  - # 2
    frequency:    3.5312951278
  - # 3
    frequency:   11.5677819863
  - # 4
    frequency:   11.5726677500
  - # 5
    frequency:   17.1218761099
  - # 6
    frequency:   17.2164840105

- q-position: [    0.5459184,    0.0918367,    0.5459184 ]
  distance:    0.2079444
  band:
  - # 1
    frequency:    3.0842643187
  - # 2
    frequency:    3.5747932172
  - # 3
    frequency:   11.5702955426
  - # 4
    frequency:   11.5744828484
  - # 5
    frequency:   17.1028445555
  - # 6
    frequency:   17.2084350059

- q-position: [    0.5484694,    0.0969388,    0.5484694 ]
  distance:    0.2092723
  band:
  - # 1
    frequency:    3.0799426755
  - # 2
    frequency:    3.6195506098
  - # 3
    frequency:   11.5730956474
  - # 4
    frequency:   11.5762424544
  - # 5
    frequency:   17.0828638831
  - # 6
    frequency:   17.1999542849

- q-position: [    0.5510204,    0.1020408,    0.5510204 ]
  distance:    0.2106002
  band:
  - # 1
    frequency:    3.0753916006
  - # 2
    frequency:    3.6654155990
  - # 3
    frequency:   11.5762053590
  - # 4
    frequency:   11.5779197213
  - # 5
    frequency:   17.0619578050
  - # 6
    frequency:   17.1910464826

- q-position: [    0.5535714,    0.1071429,    0.5535714 ]
  distance:    0.2119282
  band:
  - # 1
    frequency:    3.0706117464
  - # 2
    frequency:    3.7122381009
  - # 3
    frequency:   11.5794862310
  - # 4
    frequency:   11.5796487764
  - # 5
    frequency:   17.0401514769
  - # 6
    frequency:   17.1817164661

- q-position: [    0.5561224,    0.1122449,    0.5561224 ]
  distance:    0.2132561
  band:
  - # 1
    frequency:    3.0656037974
  - # 2
    frequency:    3.7598701431
  - # 3
    frequency:   11.5809121968
  - # 4
    frequency:   11.5834507737
  - # 5
    frequency:   17.0174715171
  - # 6
    frequency:   17.1719693314

- q-position: [    0.5586735,    0.1173469,    0.5586735 ]
  distance:    0.2145840
  band:
  - # 1
    frequency:    3.0603684696
  - # 2
    frequency:    3.8081662709
  - # 3
    frequency:   11.5821660608
  - # 4
    frequency:   11.5876373344
  - # 5
    frequency:   16.9939460261
  - # 6
    frequency:   17.1618104002

- q-position: [    0.5612245,    0.1224490,    0.5612245 ]
  distance:    0.2159119
  band:
  - # 1
    frequency:    3.0549065103
  - # 2
    frequency:    3.8569838797
  - # 3
    frequency:   11.5832148659
  - # 4
    frequency:   11.5922351045
  - # 5
    frequency:   16.9696046040
  - # 6
    frequency:   17.1512452169

- q-position: [    0.5637755,    0.1275510,    0.5637755 ]
  distance:    0.2172399
  band:
  - # 1
    frequency:    3.0492186983
  - # 2
    frequency:    3.9061834846
  - # 3
    frequency:   11.5840240755
  - # 4
    frequency:   11.5972714933
  - # 5
    frequency:   16.9444783663
  - # 6
    frequency:   17.1402795449

- q-position: [    0.5663265,    0.1326531,    0.5663265 ]
  distance:    0.2185678
  band:
  - # 1
    frequency:    3.0433058431
  - # 2
    frequency:    3.9556289346
  - # 3
    frequency:   11.5845576057
  - # 4
    frequency:   11.6027745555
  - # 5
    frequency:   16.9185999583
  - # 6
    frequency:   17.1289193633

- q-position: [    0.5688776,    0.1377551,    0.5688776 ]
  distance:    0.2198957
  band:
  - # 1
    frequency:    3.0371687850
  - # 2
    frequency:    4.0051875824
  - # 3
    frequency:   11.5847778287
  - # 4
    frequency:   11.6087728973
  - # 5
    frequency:   16.8920035652
  - # 6
    frequency:   17.1171708631

- q-position: [    0.5714286,    0.1428571,    0.5714286 ]
  distance:    0.2212236
  band:
  - # 1
    frequency:    3.0308083945
  - # 2
    frequency:    4.0547304173
  - # 3
    frequency:   11.5846455796
  - # 4
    frequency:   11.6152955745
  - # 5
    frequency:   16.8647249201
  - # 6
    frequency:   17.1050404433

- q-position: [    0.5739796,    0.1479592,    0.5739796 ]
  distance:    0.2225516
  band:
  - # 1
    frequency:    3.0242255722
  - # 2
    frequency:    4.1041321681
  - # 3
    frequency:   11.5841201672
  - # 4
    frequency:   11.6223719815
  - # 5
    frequency:   16.8368013065
  - # 6
    frequency:   17.0925347072

- q-position: [    0.5765306,    0.1530612,    0.5765306 ]
  distance:    0.2238795
  band:
  - # 1
    frequency:    3.0174212486
  - # 2
    frequency:    4.1532713841
  - # 3
    frequency:   11.5831593904
  - # 4
    frequency:   11.6300317318
  - # 5
    frequency:   16.8082715570
  - # 6
    frequency:   17.0796604577

- q-position: [    0.5790816,    0.1581633,    0.5790816 ]
  distance:    0.2252074
  band:
  - # 1
    frequency:    3.0103963836
  - # 2
    frequency:    4.2020304991
  - # 3
    frequency:   11.5817195602
  - # 4
    frequency:   11.6383045306
  - # 5
    frequency:   16.7791760451
  - # 6
    frequency:   17.0664246936

- q-position: [    0.5816327,    0.1632653,    0.5816327 ]
  distance:    0.2265353
  band:
  - # 1
    frequency:    3.0031519661
  - # 2
    frequency:    4.2502958841
  - # 3
    frequency:   11.5797555288
  - # 4
    frequency:   11.6472200378
  - # 5
    frequency:   16.7495566706
  - # 6
    frequency:   17.0528346049

- q-position: [    0.5841837,    0.1683673,    0.5841837 ]
  distance:    0.2278633
  band:
  - # 1
    frequency:    2.9956890140
  - # 2
    frequency:    4.2979578925
  - # 3
    frequency:   11.5772207262
  - # 4
    frequency:   11.6568077237
  - # 5
    frequency:   16.7194568371
  - # 6
    frequency:   17.0388975682

- q-position: [    0.5867347,    0.1734694,    0.5867347 ]
  distance:    0.2291912
  band:
  - # 1
    frequency:    2.9880085736
  - # 2
    frequency:    4.3449109012
  - # 3
    frequency:   11.5740672061
  - # 4
    frequency:   11.6670967173
  - # 5
    frequency:   16.6889214207
  - # 6
    frequency:   17.0246211421

- q-position: [    0.5892857,    0.1785714,    0.5892857 ]
  distance:    0.2305191
  band:
  - # 1
    frequency:    2.9801117192
  - # 2
    frequency:    4.3910533506
  - # 3
    frequency:   11.5702457013
  - # 4
    frequency:   11.6781156476
  - # 5
    frequency:   16.6579967286
  - # 6
    frequency:   17.0100130621

- q-position: [    0.5918367,    0.1836735,    0.5918367 ]
  distance:    0.2318470
  band:
  - # 1
    frequency:    2.9719995529
  - # 2
    frequency:    4.4362877851
  - # 3
    frequency:   11.5657056904
  - # 4
    frequency:   11.6898924788
  - # 5
    frequency:   16.6267304466
  - # 6
    frequency:   16.9950812362

- q-position: [    0.5943878,    0.1887755,    0.5943878 ]
  distance:    0.2331750
  band:
  - # 1
    frequency:    2.9636732043
  - # 2
    frequency:    4.4805208950
  - # 3
    frequency:   11.5603954763
  - # 4
    frequency:   11.7024543413
  - # 5
    frequency:   16.5951715743
  - # 6
    frequency:   16.9798337389

- q-position: [    0.5969388,    0.1938776,    0.5969388 ]
  distance:    0.2345029
  band:
  - # 1
    frequency:    2.9551338298
  - # 2
    frequency:    4.5236635615
  - # 3
    frequency:   11.5542622784
  - # 4
    frequency:   11.7158273589
  - # 5
    frequency:   16.5633703478
  - # 6