nqpoint: 528    
npath: 7      
segment_nqpoint:
- 82
- 67
- 67
- 82
- 101
- 34
- 95
labels:
- [ '$\Gamma$', '$\mathrm{T}$' ]
- [ '$\mathrm{T}$', '$\mathrm{H_2}$' ]
- [ '$\mathrm{H_0}$', '$\mathrm{L}$' ]
- [ '$\mathrm{L}$', '$\Gamma$' ]
- [ '$\Gamma$', '$\mathrm{S_0}$' ]
- [ '$\mathrm{S_2}$', '$\mathrm{F}$' ]
- [ '$\mathrm{F}$', '$\Gamma$' ]
reciprocal_lattice:
- [  -0.18404310,   0.18404174,   0.18404174 ] # a*
- [   0.18404174,  -0.18404309,   0.18404174 ] # b*
- [   0.18404174,   0.18404174,  -0.18404309 ] # c*
natom: 2      
lattice:
- [     0.000019985270000,     2.716785059356000,     2.716785059420000 ] # a
- [     2.716784969786000,     0.000019985515000,     2.716785059175000 ] # b
- [     2.716784969848000,     2.716785059173000,     0.000019985453000 ] # c
points:
- symbol: Si # 1
  coordinates: [  0.000000163803000,  0.000000163796000,  0.000000163848000 ]
  mass: 28.085000
- symbol: Si # 2
  coordinates: [  0.249999836197000,  0.249999836204001,  0.249999836152999 ]
  mass: 28.085000

phonon:
- q-position: [    0.0000000,    0.0000000,    0.0000000 ]
  distance:    0.0000000
  band:
  - # 1
    frequency:   -0.0000002029
    eigenvector:
    - # atom 1
      - [ -0.01200674540468,  0.00000000000000 ]
      - [ -0.00850594325681,  0.00000000000000 ]
      - [  0.70695366679444,  0.00000000000000 ]
    - # atom 2
      - [ -0.01200674540468,  0.00000000000000 ]
      - [ -0.00850594325681,  0.00000000000000 ]
      - [  0.70695366679444,  0.00000000000000 ]
  - # 2
    frequency:   -0.0000000405
    eigenvector:
    - # atom 1
      - [ -0.26680393459581,  0.00000000000000 ]
      - [ -0.65472259850244,  0.00000000000000 ]
      - [ -0.01240884742454,  0.00000000000000 ]
    - # atom 2
      - [ -0.26680393459581,  0.00000000000000 ]
      - [ -0.65472259850244,  0.00000000000000 ]
      - [ -0.01240884742454,  0.00000000000000 ]
  - # 3
    frequency:    0.0000001710
    eigenvector:
    - # atom 1
      - [  0.65473009595480,  0.00000000000000 ]
      - [ -0.26695686531633,  0.00000000000000 ]
      - [  0.00790781331945,  0.00000000000000 ]
    - # atom 2
      - [  0.65473009595480,  0.00000000000000 ]
      - [ -0.26695686531633,  0.00000000000000 ]
      - [  0.00790781331945,  0.00000000000000 ]
  - # 4
    frequency:   15.1596188272
    eigenvector:
    - # atom 1
      - [  0.09423759708818,  0.00000000000000 ]
      - [  0.44617569409825,  0.00000000000000 ]
      - [ -0.54041329118646,  0.00000000000000 ]
    - # atom 2
      - [ -0.09423759708818,  0.00000000000000 ]
      - [ -0.44617569409825,  0.00000000000000 ]
      - [  0.54041329118646,  0.00000000000000 ]
  - # 5
    frequency:   15.1596188272
    eigenvector:
    - # atom 1
      - [  0.56960741623362, -0.00000000000000 ]
      - [ -0.36641586118684,  0.00000000000000 ]
      - [ -0.20319155504689,  0.00000000000000 ]
    - # atom 2
      - [ -0.56960741623362,  0.00000000000000 ]
      - [  0.36641586118684,  0.00000000000000 ]
      - [  0.20319155504688,  0.00000000000000 ]
  - # 6
    frequency:   15.3194552766
    eigenvector:
    - # atom 1
      - [ -0.40824829046391,  0.00000000000000 ]
      - [ -0.40824829046384,  0.00000000000000 ]
      - [ -0.40824829046383,  0.00000000000000 ]
    - # atom 2
      - [  0.40824829046391,  0.00000000000000 ]
      - [  0.40824829046384,  0.00000000000000 ]
      - [  0.40824829046383,  0.00000000000000 ]

- q-position: [    0.0061728,    0.0061728,    0.0061728 ]
  distance:    0.0019677
  band:
  - # 1
    frequency:    0.0304430490
    eigenvector:
    - # atom 1
      - [ -0.42166837181111,  0.00000000000000 ]
      - [ -0.13055203271325, -0.01011374797450 ]
      - [  0.55222040452379,  0.01011374797448 ]
    - # atom 2
      - [ -0.42164686874269, -0.00425838764331 ]
      - [ -0.13044323743298, -0.01143166443077 ]
      - [  0.55209010617509,  0.01569005207407 ]
  - # 2
    frequency:    0.0304430490
    eigenvector:
    - # atom 1
      - [  0.39437180115657,  0.00000000000000 ]
      - [ -0.56220127576852, -0.01081377428308 ]
      - [  0.16782947461125,  0.01081377428305 ]
    - # atom 2
      - [  0.39435169008258,  0.00398272224617 ]
      - [ -0.56206339894594, -0.01649083852713 ]
      - [  0.16771170886266,  0.01250811628094 ]
  - # 3
    frequency:    0.1616909350
    eigenvector:
    - # atom 1
      - [ -0.40824829046389,  0.00000000000000 ]
      - [ -0.40824829046348, -0.00000000000001 ]
      - [ -0.40824829046422, -0.00000000000000 ]
    - # atom 2
      - [ -0.40822214590619,  0.00462020112536 ]
      - [ -0.40822214590577,  0.00462020112535 ]
      - [ -0.40822214590651,  0.00462020112535 ]
  - # 4
    frequency:   15.1597092197
    eigenvector:
    - # atom 1
      - [  0.51049281621145,  0.00000000000000 ]
      - [ -0.02169321516563,  0.00084824219384 ]
      - [ -0.48879960104592, -0.00084824219384 ]
    - # atom 2
      - [ -0.51046678352156, -0.00515541701935 ]
      - [  0.02170067523045, -0.00062912127941 ]
      - [  0.48876610829121,  0.00578453829876 ]
  - # 5
    frequency:   15.1597092197
    eigenvector:
    - # atom 1
      - [ -0.26968577628381,  0.00000000000000 ]
      - [  0.57693971965490,  0.00160565214943 ]
      - [ -0.30725394337107, -0.00160565214943 ]
    - # atom 2
      - [  0.26967202360022,  0.00272353027658 ]
      - [ -0.57689408316702, -0.00743202806687 ]
      - [  0.30722205956678,  0.00470849779029 ]
  - # 6
    frequency:   15.3188783667
    eigenvector:
    - # atom 1
      - [ -0.40824829046391,  0.00000000000000 ]
      - [ -0.40824829046385,  0.00000000000000 ]
      - [ -0.40824829046383, -0.00000000000000 ]
    - # atom 2
      - [  0.40822214590620, -0.00462020112536 ]
      - [  0.40822214590615, -0.00462020112535 ]
      - [  0.40822214590612, -0.00462020112535 ]

- q-position: [    0.0123457,    0.0123457,    0.0123457 ]
  distance:    0.0039354
  band:
  - # 1
    frequency:    0.0608750021
    eigenvector:
    - # atom 1
      - [  0.26940078781804, -0.00000000000000 ]
      - [ -0.57640573017139,  0.02153619185555 ]
      - [  0.30700494235326, -0.02153619185554 ]
    - # atom 2
      - [  0.26934584001637,  0.00544085865062 ]
      - [ -0.57672311286618,  0.00989062283150 ]
      - [  0.30737727284972, -0.01533148148211 ]
  - # 2
    frequency:    0.0608750021
    eigenvector:
    - # atom 1
      - [  0.51064326966716,  0.00000000000000 ]
      - [ -0.02229052947875, -0.01136187902029 ]
      - [ -0.48835274018833,  0.01136187902029 ]
    - # atom 2
      - [  0.51053911731730,  0.01031302793748 ]
      - [ -0.02205651682475, -0.01180974448811 ]
      - [ -0.48848260049247,  0.00149671655062 ]
  - # 3
    frequency:    0.3233590157
    eigenvector:
    - # atom 1
      - [ -0.40824829046385,  0.00000000000000 ]
      - [ -0.40824829046382, -0.00000000000000 ]
      - [ -0.40824829046392, -0.00000000000000 ]
    - # atom 2
      - [ -0.40814370438678,  0.00924030497836 ]
      - [ -0.40814370438675,  0.00924030497835 ]
      - [ -0.40814370438685,  0.00924030497835 ]
  - # 4
    frequency:   15.1599802566
    eigenvector:
    - # atom 1
      - [  0.55414525398924,  0.00000000000000 ]
      - [ -0.13675363562782, -0.00169079054341 ]
      - [ -0.41739161836152,  0.00169079054341 ]
    - # atom 2
      - [ -0.55403222884273, -0.01119160052681 ]
      - [  0.13669159548258,  0.00445234258715 ]
      - [  0.41734063336025,  0.00673925793965 ]
  - # 5
    frequency:   15.1599802566
    eigenvector:
    - # atom 1
      - [ -0.16203817702781,  0.00000000000000 ]
      - [  0.56088812022461, -0.00578223954568 ]
      - [ -0.39884994319679,  0.00578223954568 ]
    - # atom 2
      - [  0.16200512722982,  0.00327254728671 ]
      - [ -0.56089049875835, -0.00554672028040 ]
      - [  0.39888537152851,  0.00227417299369 ]
  - # 6
    frequency:   15.3171475732
    eigenvector:
    - # atom 1
      - [ -0.40824829046391,  0.00000000000000 ]
      - [ -0.40824829046385,  0.00000000000000 ]
      - [ -0.40824829046383, -0.00000000000000 ]
    - # atom 2
      - [  0.40814370438684, -0.00924030497836 ]
      - [  0.40814370438677, -0.00924030497835 ]
      - [  0.40814370438676, -0.00924030497835 ]

- q-position: [    0.0185185,    0.0185185,    0.0185185 ]
  distance:    0.0059031
  band:
  - # 1
    frequency:    0.0912847662
    eigenvector:
    - # atom 1
      - [  0.20417099086212,  0.00000000000000 ]
      - [ -0.56925855184086, -0.02202249378539 ]
      - [  0.36508756097870,  0.02202249378539 ]
    - # atom 2
      - [  0.20407730699439,  0.00618435764955 ]
      - [ -0.56833028421587, -0.03925528142285 ]
      - [  0.36425297722145,  0.03307092377329 ]
  - # 2
    frequency:    0.0912847662
    eigenvector:
    - # atom 1
      - [  0.54004401656130,  0.00000000000000 ]
      - [ -0.09340087573190,  0.00832590351810 ]
      - [ -0.44664314082952, -0.00832590351811 ]
    - # atom 2
      - [  0.53979621734163,  0.01635798176231 ]
      - [ -0.09361021110145,  0.00549296226279 ]
      - [ -0.44618600624030, -0.02185094402511 ]
  - # 3
    frequency:    0.4849813948
    eigenvector:
    - # atom 1
      - [ -0.40824829046392,  0.00000000000000 ]
      - [ -0.40824829046384,  0.00000000000000 ]
      - [ -0.40824829046383, -0.00000000000000 ]
    - # atom 2
      - [ -0.40801294232077,  0.01386021520252 ]
      - [ -0.40801294232069,  0.01386021520252 ]
      - [ -0.40801294232068,  0.01386021520251 ]
  - # 4
    frequency:   15.1604315164
    eigenvector:
    - # atom 1
      - [  0.28625714465694,  0.00000000000000 ]
      - [  0.29100300520096, -0.00850933260672 ]
      - [ -0.57726014985797,  0.00850933260672 ]
    - # atom 2
      - [ -0.28612579555409, -0.00867075462005 ]
      - [ -0.29112722690868, -0.00030907906306 ]
      - [  0.57725302246283,  0.00897983368311 ]
  - # 5
    frequency:   15.1604315164
    eigenvector:
    - # atom 1
      - [  0.50138825321915,  0.00000000000000 ]
      - [ -0.49855247787953,  0.00485822561517 ]
      - [ -0.00283577533970, -0.00485822561517 ]
    - # atom 2
      - [ -0.50115819119811, -0.01518709521905 ]
      - [  0.49847087314431,  0.01024520291120 ]
      - [  0.00268731805388,  0.00494189230786 ]
  - # 6
    frequency:   15.3142627053
    eigenvector:
    - # atom 1
      - [ -0.40824829046391,  0.00000000000000 ]
      - [ -0.40824829046384,  0.00000000000000 ]
      - [ -0.40824829046383, -0.00000000000000 ]
    - # atom 2
      - [  0.40801294232076, -0.01386021520252 ]
      - [  0.40801294232070, -0.01386021520252 ]
      - [  0.40801294232068, -0.01386021520251 ]

- q-position: [    0.0246914,    0.0246914,    0.0246914 ]
  distance:    0.0078708
  band:
  - # 1
    frequency:    0.1216612541
    eigenvector:
    - # atom 1
      - [ -0.40795167273634,  0.00000000000000 ]
      - [ -0.14955434153059, -0.01407081548884 ]
      - [  0.55750601426705,  0.01407081548885 ]
    - # atom 2
      - [ -0.40761896067195, -0.01647271043582 ]
      - [ -0.14886420340476, -0.02009820548799 ]
      - [  0.55648316407681,  0.03657091592382 ]
  - # 2
    frequency:    0.1216612541
    eigenvector:
    - # atom 1
      - [  0.40854469283656,  0.00000000000000 ]
      - [ -0.55728936013900, -0.01405039109817 ]
      - [  0.14874466730244,  0.01405039109818 ]
    - # atom 2
      - [  0.40821149712434,  0.01649665603783 ]
      - [ -0.55626751136277, -0.03654175989773 ]
      - [  0.14805601423843,  0.02004510385990 ]
  - # 3
    frequency:    0.6465352390
    eigenvector:
    - # atom 1
      - [ -0.40824829046390,  0.00000000000000 ]
      - [ -0.40824829046388,  0.00000000000000 ]
      - [ -0.40824829046381,  0.00000000000000 ]
    - # atom 2
      - [ -0.40782982024475,  0.01847983727823 ]
      - [ -0.40782982024473,  0.01847983727823 ]
      - [ -0.40782982024466,  0.01847983727823 ]
  - # 4
    frequency:   15.1610622972
    eigenvector:
    - # atom 1
      - [  0.11571825785413,  0.00000000000000 ]
      - [  0.43186035655722,  0.01147994496430 ]
      - [ -0.54757861441140, -0.01147994496430 ]
    - # atom 2
      - [ -0.11562388182130, -0.00467259599889 ]
      - [ -0.43104459581345, -0.02890870322480 ]
      - [  0.54666847763479,  0.03358129922369 ]
  - # 5
    frequency:   15.1610622972
    eigenvector:
    - # atom 1
      - [  0.56563470379078,  0.00000000000000 ]
      - [ -0.38300477907713, -0.00234858155383 ]
      - [ -0.18262992471378,  0.00234858155383 ]
    - # atom 2
      - [ -0.56517339059471, -0.02283980508157 ]
      - [  0.38259757933831,  0.01781204411924 ]
      - [  0.18257581125654,  0.00502776096233 ]
  - # 6
    frequency:   15.3102234455
    eigenvector:
    - # atom 1
      - [ -0.40824829046393,  0.00000000000000 ]
      - [ -0.40824829046384, -0.00000000000000 ]
      - [ -0.40824829046382, -0.00000000000000 ]
    - # atom 2
      - [  0.40782982024478, -0.01847983727823 ]
      - [  0.40782982024469, -0.01847983727823 ]
      - [  0.40782982024468, -0.01847983727823 ]

- q-position: [    0.0308642,    0.0308642,    0.0308642 ]
  distance:    0.0098385
  band:
  - # 1
    frequency:    0.1519933875
    eigenvector:
    - # atom 1
      - [ -0.56106790845455,  0.00000000000000 ]
      - [  0.16305260568206,  0.01001170918401 ]
      - [  0.39801530277259, -0.01001170918401 ]
    - # atom 2
      - [ -0.56035311310547, -0.02831230351932 ]
      - [  0.16233967274234,  0.01822682622968 ]
      - [  0.39801344036324,  0.01008547728965 ]
  - # 2
    frequency:    0.1519933875
    eigenvector:
    - # atom 1
      - [  0.13614747678797,  0.00000000000000 ]
      - [ -0.55221796247951,  0.04125855920691 ]
      - [  0.41607048569153, -0.04125855920691 ]
    - # atom 2
      - [  0.13597402615618,  0.00687019989582 ]
      - [ -0.55359640884603,  0.01334027382160 ]
      - [  0.41762238268984, -0.02021047371741 ]
  - # 3
    frequency:    0.8079977361
    eigenvector:
    - # atom 1
      - [ -0.40824829046391,  0.00000000000000 ]
      - [ -0.40824829046385,  0.00000000000000 ]
      - [ -0.40824829046383, -0.00000000000000 ]
    - # atom 2
      - [ -0.40759428258389,  0.02309907945410 ]
      - [ -0.40759428258383,  0.02309907945410 ]
      - [ -0.40759428258382,  0.02309907945410 ]
  - # 4
    frequency:   15.1618716181
    eigenvector:
    - # atom 1
      - [  0.46001885160208, -0.00000000000000 ]
      - [  0.07212610965440, -0.00105372815544 ]
      - [ -0.53214496125658,  0.00105372815544 ]
    - # atom 2
      - [ -0.45943279182098, -0.02321322099324 ]
      - [ -0.07208739431168, -0.00258720278609 ]
      - [  0.53152018613276,  0.02580042377933 ]
  - # 5
    frequency:   15.1618716181
    eigenvector:
    - # atom 1
      - [  0.34887818720005,  0.00000000000000 ]
      - [ -0.57282468246096,  0.00138940992516 ]
      - [  0.22394649526087, -0.00138940992515 ]
    - # atom 2
      - [ -0.34843371960201, -0.01760490125783 ]
      - [  0.57216502073772,  0.02751792762267 ]
      - [ -0.22373130113566, -0.00991302636484 ]
  - # 6
    frequency:   15.3050293504
    eigenvector:
    - # atom 1
      - [ -0.40824829046392,  0.00000000000000 ]
      - [ -0.40824829046385,  0.00000000000000 ]
      - [ -0.40824829046383, -0.00000000000000 ]
    - # atom 2
      - [  0.40759428258390, -0.02309907945410 ]
      - [  0.40759428258383, -0.02309907945410 ]
      - [  0.40759428258381, -0.02309907945410 ]

- q-position: [    0.0370370,    0.0370370,    0.0370370 ]
  distance:    0.0118062
  band:
  - # 1
    frequency:    0.1822700996
    eigenvector:
    - # atom 1
      - [ -0.02175345920542,  0.00000000000000 ]
      - [ -0.48666456914005,  0.04580116051804 ]
      - [  0.50841802834551, -0.04580116051804 ]
    - # atom 2
      - [ -0.02171356420481, -0.00131685873404 ]
      - [ -0.48854464598617,  0.01625663062622 ]
      - [  0.51025821019102, -0.01493977189219 ]
  - # 2
    frequency:    0.1822700996
    eigenvector:
    - # atom 1
      - [  0.57694030917060,  0.00000000000000 ]
      - [ -0.30722988444510,  0.00172692679131 ]
      - [ -0.26971042472567, -0.00172692679131 ]
    - # atom 2
      - [  0.57588222301666,  0.03492542854793 ]
      - [ -0.30677097730281, -0.01687458612730 ]
      - [ -0.26911124571402, -0.01805084242063 ]
  - # 3
    frequency:    0.9693461019
    eigenvector:
    - # atom 1
      - [ -0.40824829046395,  0.00000000000000 ]
      - [ -0.40824829046383,  0.00000000000000 ]
      - [ -0.40824829046381, -0.00000000000000 ]
    - # atom 2
      - [ -0.40730625732161,  0.02771785369389 ]
      - [ -0.40730625732150,  0.02771785369388 ]
      - [ -0.40730625732147,  0.02771785369388 ]
  - # 4
    frequency:   15.1628582209
    eigenvector:
    - # atom 1
      - [ -0.46213191027634, -0.00000000000000 ]
      - [ -0.06864223623267, -0.00075706896104 ]
      - [  0.53077414650913,  0.00075706896104 ]
    - # atom 2
      - [  0.46128437827383,  0.02797543308298 ]
      - [  0.06847051940848,  0.00491097957300 ]
      - [ -0.52975489768244, -0.03288641265598 ]
  - # 5
    frequency:   15.1628582209
    eigenvector:
    - # atom 1
      - [ -0.34607431403908,  0.00000000000000 ]
      - [  0.57325385437338,  0.00101095548263 ]
      - [ -0.22717954033423, -0.00101095548263 ]
    - # atom 2
      - [  0.34543962716750,  0.02094981670568 ]
      - [ -0.57214133023652, -0.03571136821948 ]
      - [  0.22670170306896,  0.01476155151379 ]
  - # 6
    frequency:   15.2986798518
    eigenvector:
    - # atom 1
      - [ -0.40824829046393,  0.00000000000000 ]
      - [ -0.40824829046384,  0.00000000000000 ]
      - [ -0.40824829046382, -0.00000000000000 ]
    - # atom 2
      - [  0.40730625732159, -0.02771785369389 ]
      - [  0.40730625732151, -0.02771785369388 ]
      - [  0.40730625732148, -0.02771785369388 ]

- q-position: [    0.0432099,    0.0432099,    0.0432099 ]
  distance:    0.0137739
  band:
  - # 1
    frequency:    0.2124803384
    eigenvector:
    - # atom 1
      - [ -0.23004067636692,  0.00000000000000 ]
      - [ -0.34357636341422,  0.00017520329825 ]
      - [  0.57361703978117, -0.00017520329825 ]
    - # atom 2
      - [ -0.22946665934870, -0.01624084451923 ]
      - [ -0.34273141184652, -0.02408168446828 ]
      - [  0.57219807119525,  0.04032252898751 ]
  - # 2
    frequency:    0.2124803384
    eigenvector:
    - # atom 1
      - [  0.52954189687875,  0.00000000000000 ]
      - [ -0.46399200353816,  0.00007611085255 ]
      - [ -0.06554989334069, -0.00007611085255 ]
    - # atom 2
      - [  0.52822053899774,  0.03738559523234 ]
      - [ -0.46283958473113, -0.03268185958802 ]
      - [ -0.06538095426671, -0.00470373564433 ]
  - # 3
    frequency:    1.1305575869
    eigenvector:
    - # atom 1
      - [ -0.40824829046391,  0.00000000000000 ]
      - [ -0.40824829046383, -0.00000000000000 ]
      - [ -0.40824829046384, -0.00000000000000 ]
    - # atom 2
      - [ -0.40696565557053,  0.03233607664451 ]
      - [ -0.40696565557045,  0.03233607664450 ]
      - [ -0.40696565557045,  0.03233607664450 ]
  - # 4
    frequency:   15.1640205722
    eigenvector:
    - # atom 1
      - [  0.35436354320477,  0.00000000000000 ]
      - [  0.21752591728364, -0.00506949403034 ]
      - [ -0.57188946048849,  0.00506949403034 ]
    - # atom 2
      - [ -0.35347930521848, -0.02501802420062 ]
      - [ -0.21734103383277, -0.01030045981084 ]
      - [  0.57082033905133,  0.03531848401146 ]
  - # 5
    frequency:   15.1640205722
    eigenvector:
    - # atom 1
      - [  0.45580677110005,  0.00000000000000 ]
      - [ -0.53476590719772,  0.00394123997437 ]
      - [  0.07895913609760, -0.00394123997437 ]
    - # atom 2
      - [ -0.45466940336247, -0.03217990408115 ]
      - [  0.53370976499845,  0.03382300428453 ]
      - [ -0.07904036163592, -0.00164310020338 ]
  - # 6
    frequency:   15.2911742582
    eigenvector:
    - # atom 1
      - [ -0.40824829046391,  0.00000000000000 ]
      - [ -0.40824829046385,  0.00000000000000 ]
      - [ -0.40824829046383, -0.00000000000000 ]
    - # atom 2
      - [  0.40696565557052, -0.03233607664451 ]
      - [  0.40696565557046, -0.03233607664450 ]
      - [  0.40696565557044, -0.03233607664450 ]

- q-position: [    0.0493827,    0.0493827,    0.0493827 ]
  distance:    0.0157416
  band:
  - # 1
    frequency:    0.2426130695
    eigenvector:
    - # atom 1
      - [ -0.02610978824533,  0.00000000000000 ]
      - [ -0.48408347752853,  0.04839575033341 ]
      - [  0.51019326577386, -0.04839575033341 ]
    - # atom 2
      - [ -0.02602472950632, -0.00210582438466 ]
      - [ -0.48640970937766,  0.00919546027088 ]
      - [  0.51243443888397, -0.00708963588621 ]
  - # 2
    frequency:    0.2426130695
    eigenvector:
    - # atom 1
      - [  0.57675957927985,  0.00000000000000 ]
      - [ -0.31088514209317,  0.00219086572391 ]
      - [ -0.26587443718681, -0.00219086572391 ]
    - # atom 2
      - [  0.57488065011863,  0.04651720552930 ]
      - [ -0.31004906025694, -0.02288999127774 ]
      - [ -0.26483158986180, -0.02362721425157 ]
  - # 3
    frequency:    1.2916094838
    eigenvector:
    - # atom 1
      - [ -0.40824829046392,  0.00000000000000 ]
      - [ -0.40824829046383,  0.00000000000000 ]
      - [ -0.40824829046384,  0.00000000000000 ]
    - # atom 2
      - [ -0.40657237104066,  0.03695367063078 ]
      - [ -0.40657237104057,  0.03695367063077 ]
      - [ -0.40657237104058,  0.03695367063077 ]
  - # 4
    frequency:   15.1653568658
    eigenvector:
    - # atom 1
      - [  0.50427120178187,  0.00000000000000 ]
      - [ -0.00865968069421, -0.00154679487813 ]
      - [ -0.49561152108779,  0.00154679487813 ]
    - # atom 2
      - [ -0.50262842045629, -0.04067082364733 ]
      - [  0.00850671660829,  0.00224018228431 ]
      - [  0.49412170384812,  0.03843064136302 ]
  - # 5
    frequency:   15.1653568658
    eigenvector:
    - # atom 1
      - [ -0.28114744954694,  0.00000000000000 ]
      - [  0.57727658329288, -0.00277435955176 ]
      - [ -0.29612913374591,  0.00277435955176 ]
    - # atom 2
      - [  0.28023154600492,  0.02267529515668 ]
      - [ -0.57561972940213, -0.04379358186135 ]
      - [  0.29538818339717,  0.02111828670466 ]
  - # 6
    frequency:   15.2825117566
    eigenvector:
    - # atom 1
      - [ -0.40824829046392,  0.00000000000000 ]
      - [ -0.40824829046384, -0.00000000000000 ]
      - [ -0.40824829046382, -0.00000000000000 ]
    - # atom 2
      - [  0.40657237104067, -0.03695367063077 ]
      - [  0.40657237104058, -0.03695367063077 ]
      - [  0.40657237104056, -0.03695367063077 ]

- q-position: [    0.0555556,    0.0555556,    0.0555556 ]
  distance:    0.0177093
  band:
  - # 1
    frequency:    0.2726572791
    eigenvector:
    - # atom 1
      - [  0.57467539247948,  0.00000000000000 ]
      - [ -0.33532446753838, -0.00290081699272 ]
      - [ -0.23935092494119,  0.00290081699272 ]
    - # atom 2
      - [  0.57230712855896,  0.05211868496081 ]
      - [ -0.33367949784335, -0.03330024006125 ]
      - [ -0.23862763071570, -0.01881844489957 ]
  - # 2
    frequency:    0.2726572791
    eigenvector:
    - # atom 1
      - [  0.05551149981627,  0.00000000000000 ]
      - [  0.46902089495134,  0.03003032073205 ]
      - [ -0.52453239476762, -0.03003032073205 ]
    - # atom 2
      - [  0.05528273435335,  0.00503447060460 ]
      - [  0.46436451654362,  0.07244319042834 ]
      - [ -0.51964725089698, -0.07747766103294 ]
  - # 3
    frequency:    1.4524791335
    eigenvector:
    - # atom 1
      - [ -0.40824829046391,  0.00000000000000 ]
      - [ -0.40824829046384, -0.00000000000000 ]
      - [ -0.40824829046384,  0.00000000000000 ]
    - # atom 2
      - [ -0.40612627939922,  0.04157056468277 ]
      - [ -0.40612627939916,  0.04157056468276 ]
      - [ -0.40612627939916,  0.04157056468276 ]
  - # 4
    frequency:   15.1668650262
    eigenvector:
    - # atom 1
      - [  0.31569471773601,  0.00000000000000 ]
      - [  0.26068061892523, -0.00932554016938 ]
      - [ -0.57637533666131,  0.00932554016938 ]
    - # atom 2
      - [ -0.31439372517621, -0.02863110854022 ]
      - [ -0.26045209754408, -0.01435463923549 ]
      - [  0.57484582272036,  0.04298574777572 ]
  - # 5
    frequency:   15.1668650262
    eigenvector:
    - # atom 1
      - [  0.48339443369455,  0.00000000000000 ]
      - [ -0.51502901921052,  0.00609031376097 ]
      - [  0.03163458551588, -0.00609031376097 ]
    - # atom 2
      - [ -0.48140234283477, -0.04384019662445 ]
      - [  0.51345890587036,  0.04064399750364 ]
      - [ -0.03205656303550,  0.00319619912082 ]
  - # 6
    frequency:   15.2726914146
    eigenvector:
    - # atom 1
      - [ -0.40824829046392,  0.00000000000000 ]
      - [ -0.40824829046384,  0.00000000000000 ]
      - [ -0.40824829046383, -0.00000000000000 ]
    - # atom 2
      - [  0.40612627939924, -0.04157056468277 ]
      - [  0.40612627939916, -0.04157056468276 ]
      - [  0.40612627939915, -0.04157056468276 ]

- q-position: [    0.0617284,    0.0617284,    0.0617284 ]
  distance:    0.0196770
  band:
  - # 1
    frequency:    0.3026019770
    eigenvector:
    - # atom 1
      - [ -0.54737500911560,  0.00000000000000 ]
      - [  0.43156971236773, -0.01893826823718 ]
      - [  0.11580529674796,  0.01893826823718 ]
    - # atom 2
      - [ -0.54459164667634, -0.05513020020511 ]
      - [  0.43128262507793,  0.02462462066470 ]
      - [  0.11330902159850,  0.03050557954042 ]
  - # 2
    frequency:    0.3026019770
    eigenvector:
    - # atom 1
      - [ -0.18361354179089,  0.00000000000000 ]
      - [ -0.37885990268547,  0.05645735411371 ]
      - [  0.56247344447638, -0.05645735411371 ]
    - # atom 2
      - [ -0.18267988017490, -0.01849308271427 ]
      - [ -0.38261966661000,  0.01801247955212 ]
      - [  0.56529954678492,  0.00048060316216 ]
  - # 3
    frequency:    1.6131439325
    eigenvector:
    - # atom 1
      - [ -0.40824829046391,  0.00000000000000 ]
      - [ -0.40824829046384,  0.00000000000000 ]
      - [ -0.40824829046385,  0.00000000000000 ]
    - # atom 2
      - [ -0.40562723751748,  0.04618669560209 ]
      - [ -0.40562723751741,  0.04618669560208 ]
      - [ -0.40562723751742,  0.04618669560208 ]
  - # 4
    frequency:   15.1685427118
    eigenvector:
    - # atom 1
      - [  0.32976598517543,  0.00000000000000 ]
      - [  0.24257435310927,  0.04918645853772 ]
      - [ -0.57234033828478, -0.04918645853772 ]
    - # atom 2
      - [ -0.32808914892679, -0.03321318014305 ]
      - [ -0.23638694668162, -0.07336781261837 ]
      - [  0.56447609560849,  0.10658099276142 ]
  - # 5
    frequency:   15.1685427118
    eigenvector:
    - # atom 1
      - [  0.47390687730246,  0.00000000000000 ]
      - [ -0.52048081387227, -0.03422617761808 ]
      - [  0.04657393656973,  0.03422617761807 ]
    - # atom 2
      - [ -0.47149709501422, -0.04773067931339 ]
      - [  0.51438703407510,  0.08647362614643 ]
      - [ -0.04288993906079, -0.03874294683303 ]
  - # 6
    frequency:   15.2617121826
    eigenvector:
    - # atom 1
      - [ -0.40824829046392,  0.00000000000000 ]
      - [ -0.40824829046384, -0.00000000000000 ]
      - [ -0.40824829046383, -0.00000000000000 ]
    - # atom 2
      - [  0.40562723751749, -0.04618669560209 ]
      - [  0.40562723751742, -0.04618669560208 ]
      - [  0.40562723751740, -0.04618669560208 ]

- q-position: [    0.0679012,    0.0679012,    0.0679012 ]
  distance:    0.0216447
  band:
  - # 1
    frequency:    0.3324362000
    eigenvector:
    - # atom 1
      - [  0.54122520018245, -0.00000000000000 ]
      - [ -0.09655596772578, -0.00327883289571 ]
      - [ -0.44466923245677,  0.00327883289571 ]
    - # atom 2
      - [  0.53789717866386,  0.05992781072253 ]
      - [ -0.09559918741450, -0.01394994674928 ]
      - [ -0.44229799124946, -0.04597786397326 ]
  - # 2
    frequency:    0.3324362000
    eigenvector:
    - # atom 1
      - [ -0.20101894443251,  0.00000000000000 ]
      - [  0.56914110273766, -0.00882795895360 ]
      - [ -0.36812215830512,  0.00882795895360 ]
    - # atom 2
      - [ -0.19978286863174, -0.02225806420236 ]
      - [  0.56661891126667,  0.05424515720050 ]
      - [ -0.36683604263490, -0.03198709299814 ]
  - # 3
    frequency:    1.7735813393
    eigenvector:
    - # atom 1
      - [ -0.40824829046391,  0.00000000000000 ]
      - [ -0.40824829046384, -0.00000000000000 ]
      - [ -0.40824829046384, -0.00000000000000 ]
    - # atom 2
      - [ -0.40507508259677,  0.05080200907373 ]
      - [ -0.40507508259670,  0.05080200907372 ]
      - [ -0.40507508259670,  0.05080200907372 ]
  - # 4
    frequency:   15.1703873189
    eigenvector:
    - # atom 1
      - [ -0.56698023976719,  0.00000000000000 ]
      - [  0.18915935945046,  0.00132793870931 ]
      - [  0.37782088031684, -0.00132793870931 ]
    - # atom 2
      - [  0.56349384918907,  0.06277956843238 ]
      - [ -0.18784917123661, -0.02226467054870 ]
      - [ -0.37564467795256, -0.04051489788369 ]
  - # 5
    frequency:   15.1703873189
    eigenvector:
    - # atom 1
      - [ -0.10893457232131,  0.00000000000000 ]
      - [  0.54543793054051, -0.00691162586640 ]
      - [ -0.43650335821919,  0.00691162586639 ]
    - # atom 2
      - [  0.10826472804820,  0.01206191143541 ]
      - [ -0.54284930280714, -0.05352514442978 ]
      - [  0.43458457475893,  0.04146323299438 ]
  - # 6
    frequency:   15.2495728968
    eigenvector:
    - # atom 1
      - [ -0.40824829046391,  0.00000000000000 ]
      - [ -0.40824829046384,  0.00000000000000 ]
      - [ -0.40824829046383, -0.00000000000000 ]
    - # atom 2
      - [  0.40507508259677, -0.05080200907373 ]
      - [  0.40507508259670, -0.05080200907372 ]
      - [  0.40507508259669, -0.05080200907372 ]

- q-position: [    0.0740741,    0.0740741,    0.0740741 ]
  distance:    0.0236124
  band:
  - # 1
    frequency:    0.3621490143
    eigenvector:
    - # atom 1
      - [ -0.57219246648781,  0.00000000000000 ]
      - [  0.21985592992561, -0.00768493247910 ]
      - [  0.35233653656231,  0.00768493247910 ]
    - # atom 2
      - [ -0.56800798986949, -0.06907345474079 ]
      - [  0.21917581408140,  0.01891165334961 ]
      - [  0.34883217578819,  0.05016180139120 ]
  - # 2