   2   16
1 1
    15.153742392108272    -0.000000000000002     0.000000000000001
     0.000000000000002    15.153742392108267     0.000000000000003
     0.000000000000003     0.000000000000001    15.153742392108272
1 2
    -0.840289729441318    -0.000001812253149    -0.000001812237133
     0.000001812246423    -0.243050192682603    -0.104530431316879
     0.000001812230408    -0.104530431311954    -0.243050192682603
1 3
    -0.243050192682616     0.000001812237056    -0.104530434753741
    -0.000001812243675    -0.840289729441318    -0.000001812290921
    -0.104530427875092     0.000001812284267    -0.243050192682590
1 4
    -0.243050192679763     0.104530434767438     0.000002581188823
     0.104530427893714    -0.243050192679787     0.000002581233171
    -0.000002581198220    -0.000002581242678    -0.840289729446975
1 5
    -0.243050192682616    -0.104530434751278     0.000001812223426
    -0.104530427877555    -0.243050192682590     0.000001812286653
    -0.000001812230045    -0.000001812293306    -0.840289729441318
1 6
    -0.243050192679762     0.000002581202453     0.104530434769901
    -0.000002581211850    -0.840289729446975    -0.000002581245064
     0.104530427891252     0.000002581235557    -0.243050192679787
1 7
    -0.840289729446975    -0.000002581202521    -0.000002581191276
     0.000002581192942    -0.243050192679775     0.104530431333038
     0.000002581181697     0.104530431328114    -0.243050192679775
1 8
     0.890071943361058    -0.000000000000000     0.000000000000000
     0.000000000000000     0.890071943361058     0.000000000000000
     0.000000000000000     0.000000000000000     0.890071943361058
1 9
    -3.872577856660362    -3.303404309227986    -3.303404309230417
    -3.303404091406953    -3.872577856659159    -3.303404200319300
    -3.303404091404523    -3.303404200314436    -3.872577856659161
1 10
    -3.872577856479999     3.303428609812542     3.303428609965750
     3.303379790912578    -3.872577856749341    -3.303404200560256
     3.303379790759371    -3.303404200253840    -3.872577856749340
1 11
    -3.872577856748943     3.303380008137006    -3.303404308874770
     3.303428392585715    -3.872577856481195     3.303428501054629
    -3.303404091938133     3.303379899669286    -3.872577856748545
1 12
     0.524819330172554    -0.847634020117734     0.847627784731995
    -0.847633964531700     0.524819330172656     0.847627756939131
     0.847640199894299     0.847640227687469     0.524819330241256
1 13
    -3.872577856748940    -3.303404308721560     3.303380008139436
    -3.303404092091341    -3.872577856748542     3.303379899824922
     3.303428392583283     3.303428500898991    -3.872577856481196
1 14
     0.524819330172554     0.847627784731371    -0.847634020157047
     0.847640199894923     0.524819330241256     0.847640227727406
    -0.847633964492388     0.847627756899196     0.524819330172656
1 15
     0.524819330241563     0.847640255634043     0.847640255673355
     0.847627728992867     0.524819330172451    -0.847633992364182
     0.847627728953555    -0.847633992285558     0.524819330172451
1 16
     0.524819330195283    -0.847634020247680    -0.847634020248303
    -0.847633964356090     0.524819330195591    -0.847633992302354
    -0.847633964355466    -0.847633992301107     0.524819330195591
9 1
    -3.872529510412897    -3.303355491104673    -3.303298732568908
    -3.303355707733298    -3.872529001109673    -3.303298623661547
    -3.303347333642981    -3.303347008105396    -3.872480654150344
9 2
    -3.872626713230084     3.303379790491847     3.303436984351163
     3.303428609750943    -3.872529000484798    -3.303395826893651
     3.303436983685619    -3.303347007329750    -3.872577857231672
9 3
    -3.872529509786429     3.303428392525710    -3.303395935204414
     3.303380007717877    -3.872626203919662     3.303436875436298
    -3.303347333461540     3.303436658143735    -3.872577857227679
9 4
     0.524806893837300    -0.847646435224485     0.847632534359165
    -0.847646491116487     0.524806824816374     0.847632506566811
     0.847632534358328     0.847632450673565     0.524794388367060
9 5
    -3.872626713499025    -3.303452693589404     3.303485586231051
    -3.303452911412038    -3.872626204187018     3.303485477912798
     3.303485586227790     3.303485260085309    -3.872675061381596
9 6
     0.524831835735408     0.847640200043874    -0.847654212609823
     0.847627784788173     0.524806824884976     0.847620035458617
    -0.847641741689873     0.847619979702630     0.524819330378409
9 7
     0.524806893906309     0.847627729049258     0.847620063404058
     0.847640255782584     0.524831766711819    -0.847654184816452
     0.847620063233284    -0.847641658004914     0.524819330377384
9 8
     0.524831835574660    -0.847621493641440    -0.847629270988090
    -0.847621549227065     0.524831766551480    -0.847629243041635
    -0.847641741736429    -0.847641658203941     0.524844272113513
9 9
    15.153743390229893     0.000000001640095    -0.000222951002161
     0.000000001640091    15.153741397266897    -0.000222950987494
    -0.000222951002159    -0.000222950987496    15.153742395388468
9 10
    -0.840289784761469    -0.000001812317312     0.000010550639077
     0.000003350135019    -0.243048638811707    -0.104526855465308
     0.000005388120311    -0.104526848548682    -0.243048654847197
9 11
    -0.243048670776612     0.000003350125363    -0.104526858901934
    -0.000001812308076    -0.840289674249735     0.000010550584477
    -0.104526858859033     0.000005388173697    -0.243048654847134
9 12
    -0.243050208715253     0.104530427840746     0.000004619175189
     0.104530434714470    -0.243050176750235     0.000004619219302
     0.000009781651158     0.000009781606226    -0.840289729552912
9 13
    -0.243050208729420    -0.104530427941836     0.000006926039254
    -0.104530434815561    -0.243050176764351     0.000006926102245
     0.000010550619383     0.000010550555548    -0.840289729569882
9 14
    -0.243051746603422     0.000001043261247     0.104534010655648
    -0.000002581264988    -0.840289674244078     0.000009781641647
     0.104534010677386     0.000006157147562    -0.243051730685106
9 15
    -0.840289784755812    -0.000002581255320     0.000009781696247
     0.000001043252025    -0.243051714638239     0.104534007218550
     0.000006157094277     0.104534000366565    -0.243051730685042
9 16
     0.890072001986843     0.000000000096333    -0.000013095275519
     0.000000000096333     0.890071884927941    -0.000013095274657
    -0.000013095275519    -0.000013095274658     0.890071943553724