  MPI-parallelism will be employed.
------------------------------------------------------------
          Invoking FHI-aims ...
          Version 171221_1
          Compiled on 2018/11/06 at 11:18:49 on host headnode.

          When using FHI-aims, please cite the following reference:

          Volker Blum, Ralf Gehrke, Felix Hanke, Paula Havu,
          Ville Havu, Xinguo Ren, Karsten Reuter, and Matthias Scheffler,
          'Ab Initio Molecular Simulations with Numeric Atom-Centered Orbitals',
          Computer Physics Communications 180, 2175-2196 (2009)

          For any questions about FHI-aims, please visit the aimsclub website
          with its forums and wiki. Contributions to both the forums and the
          wiki are warmly encouraged - they are for you, and everyone is welcome there.

------------------------------------------------------------



  Date     :  20191026, Time     :  141345.838
  Time zero on CPU 1             :   0.396000000000000E+00  s.
  Internal wall clock time zero  :           341331225.838  s.

  FHI-aims created a unique identifier for this run for later identification
  aims_uuid : AFA0B988-0039-4517-A37A-EAA55722163F

  Using       40 parallel tasks.
  Task        0 on host t017 reporting.
  Task        1 on host t017 reporting.
  Task        2 on host t017 reporting.
  Task        3 on host t017 reporting.
  Task        4 on host t017 reporting.
  Task        5 on host t017 reporting.
  Task        6 on host t017 reporting.
  Task        7 on host t017 reporting.
  Task        8 on host t017 reporting.
  Task        9 on host t017 reporting.
  Task       10 on host t017 reporting.
  Task       11 on host t017 reporting.
  Task       12 on host t017 reporting.
  Task       13 on host t017 reporting.
  Task       14 on host t017 reporting.
  Task       15 on host t017 reporting.
  Task       16 on host t017 reporting.
  Task       17 on host t017 reporting.
  Task       18 on host t017 reporting.
  Task       19 on host t017 reporting.
  Task       20 on host t016 reporting.
  Task       21 on host t016 reporting.
  Task       22 on host t016 reporting.
  Task       23 on host t016 reporting.
  Task       24 on host t016 reporting.
  Task       25 on host t016 reporting.
  Task       26 on host t016 reporting.
  Task       27 on host t016 reporting.
  Task       28 on host t016 reporting.
  Task       29 on host t016 reporting.
  Task       30 on host t016 reporting.
  Task       31 on host t016 reporting.
  Task       32 on host t016 reporting.
  Task       33 on host t016 reporting.
  Task       34 on host t016 reporting.
  Task       35 on host t016 reporting.
  Task       36 on host t016 reporting.
  Task       37 on host t016 reporting.
  Task       38 on host t016 reporting.
  Task       39 on host t016 reporting.

  Performing system and environment tests:
  | Environment variable OMP_NUM_THREADS correctly set to 1.
  | Stacksize not measured: no C compiler
  | Checking for scalapack...
  | Testing pdtran()...
  | All pdtran() tests passed.

  Obtaining array dimensions for all initial allocations:
  
  -----------------------------------------------------------------------
  Parsing control.in (first pass over file, find array dimensions only).
  The contents of control.in will be repeated verbatim below
  unless switched off by setting 'verbatim_writeout .false.' .
  in the first line of control.in .
  -----------------------------------------------------------------------
  
  #===============================================================================
  # FHI-aims file: ./control.in
  # Created using the Atomic Simulation Environment (ASE)
  # Thu Oct 24 13:07:52 2019
  #
  # List of parameters used to initialize the calculator:
  #     relativistic : ('atomic_zora', 'scalar')
  #     sc_accuracy_eev : 1E-3
  #     k_grid : [6, 6, 1]
  #     xc : pbe
  #     spin : none
  #     species_dir : /chemsoft/FHI-aims/171221_1/species_defaults/tight
  #     sc_accuracy_etot : 1E-6
  #     sc_iter_limit : 500
  #===============================================================================
  relativistic                       atomic_zora scalar
  k_grid                             12 12 1
  xc                                 pbe
  spin                               none
  adjust_scf                         once 2
  sc_iter_limit                      500
  include_spin_orbit
  ### band structure section
  output band_mulliken 0.000000 0.000000 0.000000    0.500000 0.000000 0.000000  51  G M
  output band_mulliken 0.500000 0.000000 0.000000    0.333333 0.333333 0.000000  51  M K
  output band_mulliken 0.333333 0.333333 0.000000    0.000000 0.000000 0.000000  51  K G
  #===============================================================================
  
  ################################################################################
  #
  #  FHI-aims code project
  # Volker Blum, Fritz Haber Institute Berlin, 2009
  #
  #  Suggested "tight" defaults for Mo atom (to be pasted into control.in file)
  #
  ################################################################################
    species        Mo
  #     global species definitions
      nucleus             42
      mass                95.94
  #
      l_hartree           6
  #
      cut_pot             4.0  2.0  1.0
      basis_dep_cutoff    1e-4
  #
      radial_base         59 7.0
      radial_multiplier   2
      angular_grids specified
        division   0.3117   50
        division   0.6750  110
        division   1.0351  194
        division   1.2073  302
        division   1.6402  434
  #      division   1.9185  590
  #      division   2.0237  770
  #      division   2.0980  974
  #      division   2.7972 1202
  #      outer_grid  974
        outer_grid  434
  ################################################################################
  #
  #  Definition of "minimal" basis
  #
  ################################################################################
  #     valence basis states
      valence      5  s   1.
      valence      4  p   6.
      valence      4  d   5.
  #     ion occupancy
      ion_occ     5  s   0.
      ion_occ     4  p   6.
      ion_occ     4  d   4.
  ################################################################################
  #
  #  Suggested additional basis functions. For production calculations,
  #  uncomment them one after another (the most important basis functions are
  #  listed first).
  #
  #  Constructed for dimers: 1.675 A, 1.9 A, 2.375 A, 3.00 A, 4.00 A
  #
  ################################################################################
  #  "First tier"  - max. impr. -711.23  meV, min. impr. -21.07 meV
       hydro 4 f 8.4
       hydro 3 d 2.8
       ionic 5 p auto
       hydro 5 g 12
       ionic 5 s auto
  #  "Second tier" - max. impr. -39.38  meV, min. impr. -2.68 meV
       hydro 4 f 12.4
       hydro 3 d 3.3
       hydro 6 h 17.2
       hydro 4 f 7.6
       hydro 3 p 3.0
       hydro 1 s 0.65
  #  "Third tier"  - max. impr. -5.50 meV, min. impr. -0.47 meV
  #     hydro 4 f 29.2
  #     hydro 5 g 11.2
  #     hydro 3 d 6.8
  #     hydro 6 h 14.8
  #     hydro 2 p 2.3
  #     hydro 4 s 3.8
  #  "Fourth tier"  - max. impr. -0.58 meV, min. impr. -0.19 meV
  #     hydro 5 f 6.8
  #     hydro 5 d 14.8
  #     hydro 6 s 7.8
  #     hydro 5 g 20.8
  #     hydro 5 d 10.4
  #     hydro 5 p 9.8
  #  Further functions - -0.17 meV and below
  #     hydro 5 d 3.2
  ################################################################################
  #
  #  FHI-aims code project
  # Volker Blum, Fritz Haber Institute Berlin, 2009
  #
  #  Suggested "tight" defaults for Se atom (to be pasted into control.in file)
  #
  ################################################################################
    species        Se
  #     global species definitions
      nucleus             34
      mass                78.96
  #
      l_hartree           6
  #
      cut_pot             4.0          2.0  1.0
      basis_dep_cutoff    1e-4
  #
      radial_base         55 7.0
      radial_multiplier   2
      angular_grids       specified
        division   0.0830  110
        division   0.1357  194
        division   0.7377  302
        division   0.8610  434
  #      division   0.9640  590
  #      division   1.0773  770
  #      division   2.5539  974
  #      outer_grid  974
        outer_grid  434
  ################################################################################
  #
  #  Definition of "minimal" basis
  #
  ################################################################################
  #     valence basis states
      valence      4  s   2.
      valence      4  p   4.
      valence      3  d  10.
  #     ion occupancy
      ion_occ      4  s   1.
      ion_occ      4  p   3.
      ion_occ      3  d  10.
  ################################################################################
  #
  #  Suggested additional basis functions. For production calculations,
  #  uncomment them one after another (the most important basis functions are
  #  listed first).
  #
  #  Constructed for dimers: 1.85 A, 2.15 A, 2.50 A, 3.00 A, 4.00 A
  #
  ################################################################################
  #  "First tier" - improvements: -336.21 meV to -36.85 meV
       hydro 3 d 4.3
       hydro 2 p 1.6
       hydro 4 f 7.2
       ionic 4 s auto
  #  "Second tier" - improvements: -14.39 meV to -1.49 meV
       hydro 5 g 10.4
       hydro 4 p 4.5
       hydro 4 d 6.2
       hydro 4 f 11.2
       hydro 1 s 0.65
       hydro 6 h 15.2
  #  "Third tier" - improvements: -0.46 meV and below
  #     hydro 5 g 14.4
  #     ionic 4 d auto
  #     hydro 4 f 22.4
  #     hydro 5 f 7.4
  #     hydro 5 p 8
  #     hydro 5 s 9.4
  #  "Fourth tier" - improvements: -0.12 meV and below
  #     hydro 5 d 11.6
  #     hydro 6 h 18
  #     hydro 4 p 4
  #     hydro 5 f 16
  #     hydro 4 s 3.9
  #
  #
  
  -----------------------------------------------------------------------
  Completed first pass over input file control.in .
  -----------------------------------------------------------------------
  
  
  -----------------------------------------------------------------------
  Parsing geometry.in (first pass over file, find array dimensions only).
  The contents of geometry.in will be repeated verbatim below
  unless switched off by setting 'verbatim_writeout .false.' .
  in the first line of geometry.in .
  -----------------------------------------------------------------------
  
  #=======================================================
  # FHI-aims file: ./geometry.in
  # Created using the Atomic Simulation Environment (ASE)
  # Thu Oct 24 13:07:52 2019
  #=======================================================
  lattice_vector 3.2900000000000000 0.0000000000000000 0.0000000000000000
  lattice_vector -1.6450000000000000 2.8492235799999999 0.0000000000000000
  lattice_vector 0.0000000000000000 0.0000000000000000 100.0000000000000000
  atom -0.0000000000000000 1.8994823900000000 3.2275000000000000 Mo
  atom 1.6450000000000000 0.9497411900000000 4.8864349999999996 Se
  atom 1.6450000000000000 0.9497411900000000 1.5685650000000000 Se
  
  -----------------------------------------------------------------------
  Completed first pass over input file geometry.in .
  -----------------------------------------------------------------------
  

  Basic array size parameters:
  | Number of species                 :        2
  | Number of atoms                   :        3
  | Number of lattice vectors         :        3
  | Max. basis fn. angular momentum   :        5
  | Max. atomic/ionic basis occupied n:        5
  | Max. number of basis fn. types    :        3
  | Max. radial fns per species/type  :       10
  | Max. logarithmic grid size        :     1436
  | Max. radial integration grid size :      119
  | Max. angular integration grid size:      434
  | Max. angular grid division number :        8
  | Radial grid for Hartree potential :     1436
  | Number of spin channels           :        1

------------------------------------------------------------
          Reading file control.in.
------------------------------------------------------------
  Scalar relativistic treatment of kinetic energy: on-site free-atom approximation to ZORA.
  Found k-point grid:        12        12         1
  XC: Using PBE gradient-corrected functionals.
  Spin treatment: No spin polarisation.
  S.C.F. convergence parameters will be adjusted in iteration number     2 of the first full s.c.f. cycle only.
  Maximum number of s.-c. iterations  :   500
  Calculating non-self-consistent second-variational spin-orbit coupling after scf-cycle
 Mulliken analysis of all k points in band will be performed

  Plot band    1
  | begin  0.000000  0.000000  0.000000
  | end    0.500000  0.000000  0.000000
  | number of points:   51
 Mulliken analysis of all k points in band will be performed

  Plot band    2
  | begin  0.500000  0.000000  0.000000
  | end    0.333333  0.333333  0.000000
  | number of points:   51
 Mulliken analysis of all k points in band will be performed

  Plot band    3
  | begin  0.333333  0.333333  0.000000
  | end    0.000000  0.000000  0.000000
  | number of points:   51
 
  Reading configuration options for species Mo                  .
  | Found nuclear charge :  42.0000
  | Found atomic mass :    95.9400000000000      amu
  | Found l_max for Hartree potential  :   6
  | Found cutoff potl. onset [A], width [A], scale factor :    4.00000    2.00000    1.00000
  | Threshold for basis-dependent cutoff potential is   0.100000E-03
  | Found data for basic radial integration grid :    59 points, outermost radius =    7.000 A
  | Found multiplier for basic radial grid :   2
  | Found angular grid specification: user-specified.
  | Specified grid contains     6 separate shells.
  | Check grid settings after all constraints further below.
  | Found free-atom valence shell :  5 s   1.000
  | Found free-atom valence shell :  4 p   6.000
  | Found free-atom valence shell :  4 d   5.000
  | Found free-ion valence shell :  5 s   0.000
  | Found free-ion valence shell :  4 p   6.000
  | Found free-ion valence shell :  4 d   4.000
  | Found hydrogenic basis function :  4 f   8.400
  | Found hydrogenic basis function :  3 d   2.800
  | Found ionic basis function :  5 p , default cutoff radius.
  | Found hydrogenic basis function :  5 g  12.000
  | Found ionic basis function :  5 s , default cutoff radius.
  | Found hydrogenic basis function :  4 f  12.400
  | Found hydrogenic basis function :  3 d   3.300
  | Found hydrogenic basis function :  6 h  17.200
  | Found hydrogenic basis function :  4 f   7.600
  | Found hydrogenic basis function :  3 p   3.000
  | Found hydrogenic basis function :  1 s   0.650
  Species Mo                  : Missing cutoff potential type.
  Defaulting to exp(1/x)/(1-x)^2 type cutoff potential.
  Species Mo: No 'logarithmic' tag. Using default grid for free atom:
  | Default logarithmic grid data [bohr] : 0.1000E-03 0.1000E+03 0.1012E+01
  | Will include ionic basis functions of  2.0-fold positive Mo                   ion.
  Species Mo: On-site basis accuracy parameter (for Gram-Schmidt orthonormalisation) not specified.
  Using default value basis_acc =  0.1000000E-03.
  Species Mo                  : Using default innermost maximum threshold i_radial=  2 for radial functions.
  Species Mo                  : Default cutoff onset for free atom density etc. : 0.40000000E+01 AA.
  Species Mo                  : Basic radial grid will be enhanced according to radial_multiplier =   2, to contain   119 grid points.
 
  Reading configuration options for species Se                  .
  | Found nuclear charge :  34.0000
  | Found atomic mass :    78.9600000000000      amu
  | Found l_max for Hartree potential  :   6
  | Found cutoff potl. onset [A], width [A], scale factor :    4.00000    2.00000    1.00000
  | Threshold for basis-dependent cutoff potential is   0.100000E-03
  | Found data for basic radial integration grid :    55 points, outermost radius =    7.000 A
  | Found multiplier for basic radial grid :   2
  | Found angular grid specification: user-specified.
  | Specified grid contains     5 separate shells.
  | Check grid settings after all constraints further below.
  | Found free-atom valence shell :  4 s   2.000
  | Found free-atom valence shell :  4 p   4.000
  | Found free-atom valence shell :  3 d  10.000
  | Found free-ion valence shell :  4 s   1.000
  | Found free-ion valence shell :  4 p   3.000
  | Found free-ion valence shell :  3 d  10.000
  | Found hydrogenic basis function :  3 d   4.300
  | Found hydrogenic basis function :  2 p   1.600
  | Found hydrogenic basis function :  4 f   7.200
  | Found ionic basis function :  4 s , default cutoff radius.
  | Found hydrogenic basis function :  5 g  10.400
  | Found hydrogenic basis function :  4 p   4.500
  | Found hydrogenic basis function :  4 d   6.200
  | Found hydrogenic basis function :  4 f  11.200
  | Found hydrogenic basis function :  1 s   0.650
  | Found hydrogenic basis function :  6 h  15.200
  Species Se                  : Missing cutoff potential type.
  Defaulting to exp(1/x)/(1-x)^2 type cutoff potential.
  Species Se: No 'logarithmic' tag. Using default grid for free atom:
  | Default logarithmic grid data [bohr] : 0.1000E-03 0.1000E+03 0.1012E+01
  | Will include ionic basis functions of  2.0-fold positive Se                   ion.
  Species Se: On-site basis accuracy parameter (for Gram-Schmidt orthonormalisation) not specified.
  Using default value basis_acc =  0.1000000E-03.
  Species Se                  : Using default innermost maximum threshold i_radial=  2 for radial functions.
  Species Se                  : Default cutoff onset for free atom density etc. : 0.40000000E+01 AA.
  Species Se                  : Basic radial grid will be enhanced according to radial_multiplier =   2, to contain   111 grid points.
 
  Finished reading input file 'control.in'. Consistency checks are next.
 
  MPI_IN_PLACE appears to work with this MPI implementation.
  | Keeping use_mpi_in_place .true. (see manual).
  Target number of points in a grid batch is not set. Defaulting to  100
  Method for grid partitioning is not set. Defaulting to parallel hash+maxmin partitioning.
  Batch size limit is not set. Defaulting to    200
  By default, will store active basis functions for each batch.
  If in need of memory, prune_basis_once .false. can be used to disable this option.
  communication_type for Hartree potential was not specified.
  Defaulting to calc_hartree .
  Defaulting to Pulay charge density mixer.
  Pulay mixer: Number of relevant iterations not set.
  Defaulting to    8 iterations.
  Pulay mixer: Number of initial linear mixing iterations not set.
  Defaulting to    0 iterations.
  Work space size for distributed Hartree potential not set.
  Defaulting to   0.200000E+03 MB.
  Mixing parameter for charge density mixing has not been set.
  Using default: charge_mix_param =     0.0500.
  The mixing parameter will be adjusted in iteration number     2 of the first full s.c.f. cycle only.
  Algorithm-dependent basis array size parameters:
  | n_max_pulay                         :        8
 * Notice: The s.c.f. convergence criterion sc_accuracy_rho was not provided.
 * We used to stop in this case, and ask the user to provide reasonable
 * scf convergence criteria. However, this led some users to employ criteria
 * that led to extremely long run times, e.g., for simple relaxation.
 * We now preset a default value for sc_accuracy_rho if it is not set.
 * You may still wish to check if this setting is too tight or too loose for your needs.
 * Based on n_atoms, FHI-aims chose sc_accuracy_rho =  0.100000E-05 .
  Presetting      1001 iterations before the initial mixing cycle
  is restarted anyway using the sc_init_iter criterion / keyword.
  Presetting a factor      1.000 between actual scf density residual
  and density convergence criterion sc_accuracy_rho below which sc_init_iter
  takes no effect.
 * No s.c.f. convergence criteria (sc_accuracy_*) were provided in control.in.
 * The run will proceed with a reasonable default guess, but please check whether.
 * the s.c.f. cycles seem to take too much or too little time.
  Calculation of forces was not defined in control.in. No forces will be calculated.
  Geometry relaxation not requested: no relaxation will be performed.
  No accuracy limit for integral partition fn. given. Defaulting to  0.1000E-14.
  No threshold value for u(r) in integrations given. Defaulting to  0.1000E-05.
  No occupation type (smearing scheme) given. Defaulting to Gaussian broadening, width =  0.1000E-01 eV.
  The width will be adjusted in iteration number     2 of the first full s.c.f. cycle only.
  S.C.F. convergence parameters will be adjusted in iteration number     2 of the first full s.c.f. cycle only.
  No accuracy for occupation numbers given. Defaulting to  0.1000E-12.
  No threshold value for occupation numbers given. Defaulting to  0.0000E+00.
  No accuracy for fermi level given. Defaulting to  0.1000E-19.
  Maximum # of iterations to find E_F not set. Defaulting to  200.
  Preferred method for the eigenvalue solver ('KS_method') not specified in 'control.in'.
  Defaulting to serial version, 'lapack_fast', since more k-points than CPUs available.
  Will not use alltoall communication since running on < 1024 CPUs.
  Threshold for basis singularities not set.
  Default threshold for basis singularities:  0.1000E-04
  partition_type (choice of integration weights) for integrals was not specified.
  | Using a version of the partition function of Stratmann and coworkers ('stratmann_smoother').
  | At each grid point, the set of atoms used to build the partition table is smoothly restricted to
  | only those atoms whose free-atom density would be non-zero at that grid point.
  Partitioning for Hartree potential was not defined. Using partition_type for integrals.
  | Adjusted default value of keyword multip_moments_threshold to:       0.10000000E-11
  | This value may affect high angular momentum components of the Hartree potential in periodic systems.
  Angular momentum expansion for Kerker preconditioner not set explicitly.
  | Using default value of   0
  No explicit requirement for turning off preconditioner.
  | By default, it will be turned off when the charge convergence reaches
  | sc_accuracy_rho  =   0.100000E-05
  No special mixing parameter while Kerker preconditioner is on.
  Using default: charge_mix_param =     0.0500.
  No q(lm)/r^(l+1) cutoff set for long-range Hartree potential.
  | Using default value of  0.100000E-09 .
  | Verify using the multipole_threshold keyword.
  Defaulting to new monopole extrapolation.
  Density update method: automatic selection selected.
  Using density matrix based charge density update.
  Using density matrix based charge density update.
  Using packed matrix style: index .
  Defaulting to use time-reversal symmetry for k-point grid.
------------------------------------------------------------


------------------------------------------------------------
          Reading geometry description geometry.in.
------------------------------------------------------------
  Input structure read successfully.
  The structure contains        3 atoms,  and a total of        110.000 electrons.

  Input geometry:
  | Unit cell:
  |        3.29000000        0.00000000        0.00000000
  |       -1.64500000        2.84922358        0.00000000
  |        0.00000000        0.00000000      100.00000000
  | Atomic structure:
  |       Atom                x [A]            y [A]            z [A]
  |    1: Species Mo            0.00000000        1.89948239        3.22750000
  |    2: Species Se            1.64500000        0.94974119        4.88643500
  |    3: Species Se            1.64500000        0.94974119        1.56856500

  Lattice parameters for 3D lattice (in Angstroms) :     3.290000    3.290000  100.000000
  Angle(s) between unit vectors (in degrees)      :    90.000000   90.000000  120.000000

  |

  | The smallest distance between any two atoms is         2.52192360 AA.
  |
  | The first atom of this pair is atom number                      3 .
  | The second atom of this pair is atom number                     1 .
  | Wigner-Seitz cell of the first atom image           1     0     0 .
  | (The Wigner-Seitz cell of the second atom is 0 0 0  by definition.)

  Quantities derived from the lattice vectors:
  | Reciprocal lattice vector 1:  1.909783  1.102614  0.000000
  | Reciprocal lattice vector 2: -0.000000  2.205227  0.000000
  | Reciprocal lattice vector 3:  0.000000  0.000000  0.062832
  | Unit cell volume                               :   0.937395E+03  A^3

  Range separation radius for Ewald summation (hartree_convergence_parameter):      5.00000000 bohr.

  Fractional coordinates:
                         L1                L2                L3
       atom_frac         0.33333333        0.66666667        0.03227500  Mo
       atom_frac         0.66666667        0.33333333        0.04886435  Se
       atom_frac         0.66666667        0.33333333        0.01568565  Se

  Number of empty states per atom not set in control.in - providing a guess from actual geometry.
  | Total number of empty states used during s.c.f. cycle:       17
  If you use a very high smearing, use empty_states (per atom!) in control.in to increase this value.

  Structure-dependent array size parameters: 
  | Maximum number of distinct radial functions  :       39
  | Maximum number of basis functions            :      223
  | Number of Kohn-Sham states (occupied + empty):       72
------------------------------------------------------------

------------------------------------------------------------
          Preparing all fixed parts of the calculation.
------------------------------------------------------------
  Determining machine precision:
    2.225073858507201E-308
  Setting up grids for atomic and cluster calculations.

  Creating wave function, potential, and density for free atoms.

  Species: Mo

  List of occupied orbitals and eigenvalues:
    n    l              occ      energy [Ha]    energy [eV]
    1    0           2.0000      -745.344654    -20281.8600
    2    0           2.0000      -103.288246     -2810.6162
    3    0           2.0000       -17.516687      -476.6533
    4    0           2.0000        -2.358559       -64.1796
    5    0           1.0000        -0.145159        -3.9500
    2    1           6.0000       -92.308627     -2511.8455
    3    1           6.0000       -13.936005      -379.2180
    4    1           6.0000        -1.408138       -38.3174
    3    2          10.0000        -8.119011      -220.9295
    4    2           5.0000        -0.132984        -3.6187


  Species: Se

  List of occupied orbitals and eigenvalues:
    n    l              occ      energy [Ha]    energy [eV]
    1    0           2.0000      -466.337810    -12689.6975
    2    0           2.0000       -59.202598     -1610.9847
    3    0           2.0000        -7.847116      -213.5309
    4    0           2.0000        -0.634372       -17.2621
    2    1           6.0000       -52.061107     -1416.6548
    3    1           6.0000        -5.620941      -152.9536
    4    1           4.0000        -0.238469        -6.4891
    3    2          10.0000        -1.951949       -53.1152

  Creating fixed part of basis set: Ionic, confined, hydrogenic.
 
  Mo                   ion:

  List of free ionic orbitals and eigenvalues:
    n    l      energy [Ha]    energy [eV]
    1    0      -746.048685    -20301.0176
    2    0      -103.980912     -2829.4646
    3    0       -18.206601      -495.4268
    4    0        -3.040545       -82.7374
    2    1       -93.001013     -2530.6863
    3    1       -14.625827      -397.9890
    4    1        -2.084855       -56.7318
    3    2        -8.808854      -239.7011
    4    2        -0.765435       -20.8285


  List of ionic basis orbitals and eigenvalues:
    n    l      energy [Ha]    energy [eV]    outer radius [A]
    5    1        -0.465587       -12.6693       5.456393
    5    0        -0.650331       -17.6964       5.390095

 
  Mo                   hydrogenic:
 
  List of hydrogenic basis orbitals: 
    n    l      effective z      eigenvalue [eV]  inner max. [A]     outer max. [A]     outer radius [A]   
    4    3         8.400000       -60.0010           1.009788           1.009788           4.487018
    3    2         2.800000       -11.8048           1.687401           1.687401           5.456393
    5    4        12.000000       -78.3687           1.100005           1.100005           4.432498
    4    3        12.400000      -130.7506           0.682864           0.682864           3.428897
    3    2         3.300000       -16.4532           1.439455           1.439455           5.456393
    6    5        17.200000      -111.8085           1.113535           1.113535           4.169676
    4    3         7.600000       -49.1164           1.113535           1.113535           4.828511
    3    1         3.000000       -13.5316           0.528251           2.102736           5.456393
    1    0         0.650000        -5.7375           0.810333           0.810333           5.456393
 
 
  Se                   ion:

  List of free ionic orbitals and eigenvalues:
    n    l      energy [Ha]    energy [eV]
    1    0      -467.261007    -12714.8189
    2    0       -60.104893     -1635.5374
    3    0        -8.743714      -237.9286
    4    0        -1.414053       -38.4783
    2    1       -52.964156     -1441.2280
    3    1        -6.516916      -177.3343
    4    1        -0.961869       -26.1738
    3    2        -2.844511       -77.4031


  List of ionic basis orbitals and eigenvalues:
    n    l      energy [Ha]    energy [eV]    outer radius [A]
    4    0        -1.414046       -38.4782       4.083166

 
  Se                   hydrogenic:
 
  List of hydrogenic basis orbitals: 
    n    l      effective z      eigenvalue [eV]  inner max. [A]     outer max. [A]     outer radius [A]   
    3    2         4.300000       -27.9518           1.103845           1.103845           5.278265
    2    1         1.600000        -8.6828           1.326010           1.326010           5.475439
    4    3         7.200000       -44.0822           1.173422           1.173422           4.965294
    5    4        10.400000       -58.8635           1.278259           1.278259           4.904963
    4    1         4.500000       -16.9509           0.333121           2.727671           5.475439
    4    2         6.200000       -32.6848           0.577455           1.800022           5.408909
    4    3        11.200000      -106.6686           0.755651           0.755651           3.657749
    1    0         0.650000        -5.7375           0.813162           0.813162           5.408909
    6    5        15.200000       -87.3182           1.247385           1.247385           4.614127
 

  Adding cutoff potential to free-atom effective potential.
  Creating atomic-like basis functions for current effective potential.

  Species Mo                  :

  List of atomic basis orbitals and eigenvalues:
    n    l      energy [Ha]    energy [eV]    outer radius [A]
    1    0      -745.344654    -20281.8600       0.247552
    2    0      -103.288246     -2810.6162       0.682864
    3    0       -17.516687      -476.6533       1.626637
    4    0        -2.358559       -64.1796       4.220963
    5    0        -0.145159        -3.9500       5.456393
    2    1       -92.308627     -2511.8455       0.699766
    3    1       -13.936005      -379.2180       1.793761
    4    1        -1.408138       -38.3174       4.828511
    3    2        -8.119011      -220.9295       2.181285
    4    2        -0.132984        -3.6187       5.390095


  Species Se                  :

  List of atomic basis orbitals and eigenvalues:
    n    l      energy [Ha]    energy [eV]    outer radius [A]
    1    0      -466.337810    -12689.6975       0.309561
    2    0       -59.202598     -1610.9847       0.885812
    3    0        -7.847116      -213.5309       2.355489
    4    0        -0.634372       -17.2621       5.214131
    2    1       -52.061107     -1416.6548       0.907737
    3    1        -5.620941      -152.9536       2.694529
    4    1        -0.238469        -6.4891       5.408909
    3    2        -1.951949       -53.1152       4.083166

  Assembling full basis from fixed parts.
  | Species Mo :   atomic orbital   1 s accepted.
  | Species Mo :   atomic orbital   2 s accepted.
  | Species Mo :   atomic orbital   3 s accepted.
  | Species Mo :   atomic orbital   4 s accepted.
  | Species Mo :    ionic orbital   5 s accepted.
  | Species Mo :   atomic orbital   5 s accepted.
  | Species Mo :    hydro orbital   1 s accepted.
  | Species Mo :   atomic orbital   2 p accepted.
  | Species Mo :   atomic orbital   3 p accepted.
  | Species Mo :   atomic orbital   4 p accepted.
  | Species Mo :    ionic orbital   5 p accepted.
  | Species Mo :    hydro orbital   3 p accepted.
  | Species Mo :   atomic orbital   3 d accepted.
  | Species Mo :   atomic orbital   4 d accepted.
  | Species Mo :    hydro orbital   3 d accepted.
  | Species Mo :    hydro orbital   3 d accepted.
  | Species Mo :    hydro orbital   4 f accepted.
  | Species Mo :    hydro orbital   4 f accepted.
  | Species Mo :    hydro orbital   4 f accepted.
  | Species Mo :    hydro orbital   5 g accepted.
  | Species Mo :    hydro orbital   6 h accepted.
  | Species Se :   atomic orbital   1 s accepted.
  | Species Se :   atomic orbital   2 s accepted.
  | Species Se :   atomic orbital   3 s accepted.
  | Species Se :    ionic orbital   4 s accepted.
  | Species Se :   atomic orbital   4 s accepted.
  | Species Se :    hydro orbital   1 s accepted.
  | Species Se :   atomic orbital   2 p accepted.
  | Species Se :   atomic orbital   3 p accepted.
  | Species Se :   atomic orbital   4 p accepted.
  | Species Se :    hydro orbital   2 p accepted.
  | Species Se :    hydro orbital   4 p accepted.
  | Species Se :   atomic orbital   3 d accepted.
  | Species Se :    hydro orbital   3 d accepted.
  | Species Se :    hydro orbital   4 d accepted.
  | Species Se :    hydro orbital   4 f accepted.
  | Species Se :    hydro orbital   4 f accepted.
  | Species Se :    hydro orbital   5 g accepted.
  | Species Se :    hydro orbital   6 h accepted.
 
  Basis size parameters after reduction:
  | Total number of radial functions:       39
  | Total number of basis functions :      223
 
  Per-task memory consumption for arrays in subroutine allocate_ext:
  |          14.344320MB.
  Testing on-site integration grid accuracy.
  |  Species  Function  <phi|h_atom|phi> (log., in eV)  <phi|h_atom|phi> (rad., in eV)
           1        1             -20281.8599610543             -20281.8584300616
           1        2              -2810.6161812280              -2810.6161551921
           1        3               -476.6533163555               -476.6533136395
           1        4                -64.1796433667                -64.1796426456
           1        5                 -3.3691762756                 -3.3691802887
           1        6                  4.4704608512                  4.4699102345
           1        7                 47.6285199283                 47.6283663304
           1        8              -2511.8455406047              -2511.8455385741
           1        9               -379.2179896350               -379.2179882338
           1       10                -38.3173891619                -38.3173886619
           1       11                  0.2493245095                  0.2492931069
           1       12                 12.9899978429                 12.9896957264
           1       13               -220.9295301098               -220.9295297081
           1       14                 -3.6195697699                 -3.6195754704
           1       15                  7.1428000922                  7.1426882355
           1       16                 20.1860643586                 20.1854440119
           1       17                 39.6800378350                 39.6800378704
           1       18                 41.9987405107                 41.9987406673
           1       19                 51.4938078473                 51.4938137886
           1       20                 50.2449608881                 50.2449608586
           1       21                 84.8920029004                 84.8920028797
           2       22             -12689.6974611609             -12689.6967666984
           2       23              -1610.9846578580              -1610.9846472470
           2       24               -213.5308789869               -213.5308777267
           2       25                -17.0464428502                -17.0464426496
           2       26                  6.7356859379                  6.7356842047
           2       27                 16.3222979729                 16.3222286215
           2       28              -1416.6548010133              -1416.6548002108
           2       29               -152.9535734377               -152.9535727493
           2       30                 -6.4896265677                 -6.4896303794
           2       31                  5.2703037283                  5.2701679583
           2       32                 24.5827617535                 24.5824715668
           2       33                -53.1152220964                -53.1152219035
           2       34                  7.6186674138                  7.6186665630
           2       35                 26.7015845260                 26.7015708238
           2       36                 49.4570230857                 49.4570230427
           2       37                 39.6372293866                 39.6372304734
           2       38                 42.1067201496                 42.1067200432
           2       39                 70.4166767372                 70.4166768848

  Preparing densities etc. for the partition functions (integrals / Hartree potential).

  Preparations completed.
  max(cpu_time)          :      0.512 s.
  Wall clock time (cpu1) :      0.671 s.
------------------------------------------------------------

------------------------------------------------------------
          Begin self-consistency loop: Initialization.

          Date     :  20191026, Time     :  141347.186
------------------------------------------------------------

  Initializing index lists of integration centers etc. from given atomic structure:
  Mapping all atomic coordinates to central unit cell.

  Initializing the k-points
          Using symmetry for reducing the k-points
  | k-points reduced from:      144 to       74
  | Number of k-points                             :        74
  The eigenvectors in the calculations are COMPLEX.
  | K-points in task   0:         1
  | K-points in task   1:         2
  | K-points in task   2:         2
  | K-points in task   3:         2
  | K-points in task   4:         2
  | K-points in task   5:         2
  | K-points in task   6:         2
  | K-points in task   7:         2
  | K-points in task   8:         2
  | K-points in task   9:         2
  | K-points in task  10:         2
  | K-points in task  11:         2
  | K-points in task  12:         2
  | K-points in task  13:         2
  | K-points in task  14:         2
  | K-points in task  15:         2
  | K-points in task  16:         2
  | K-points in task  17:         2
  | K-points in task  18:         2
  | K-points in task  19:         2
  | K-points in task  20:         2
  | K-points in task  21:         2
  | K-points in task  22:         2
  | K-points in task  23:         2
  | K-points in task  24:         2
  | K-points in task  25:         2
  | K-points in task  26:         2
  | K-points in task  27:         2
  | K-points in task  28:         2
  | K-points in task  29:         2
  | K-points in task  30:         2
  | K-points in task  31:         2
  | K-points in task  32:         2
  | K-points in task  33:         2
  | K-points in task  34:         2
  | K-points in task  35:         1
  | K-points in task  36:         1
  | K-points in task  37:         1
  | K-points in task  38:         1
  | K-points in task  39:         1
  | Number of basis functions in the Hamiltonian integrals :      3278
  | Number of basis functions in a single unit cell        :       223
  | Number of centers in hartree potential         :       357
  | Number of centers in hartree multipole         :       195
  | Number of centers in electron density summation:       144
  | Number of centers in basis integrals           :       165
  | Number of centers in integrals                 :        63
  | Number of centers in hamiltonian               :       144
  | Consuming         69 KiB for k_phase.
  | Number of super-cells (origin) [n_cells]                     :         675
  | Number of super-cells (after PM_index) [n_cells]             :          60
  | Number of super-cells in hamiltonian [n_cells_in_hamiltonian]:          60
  | Size of matrix packed + index [n_hamiltonian_matrix_size] :      685084
  Partitioning the integration grid into batches with parallel hashing+maxmin method.
  | Number of batches:     1249
  | Maximal batch size:     160
  | Minimal batch size:      16
  | Average batch size:      76.456
  | Standard deviation of batch sizes:      17.555

  Integration load balanced across    40 MPI tasks.
  Work distribution over tasks is as follows:
  Task     0 has       2432 integration points.
  Task     1 has       2407 integration points.
  Task     2 has       2399 integration points.
  Task     3 has       2463 integration points.
  Task     4 has       2432 integration points.
  Task     5 has       2333 integration points.
  Task     6 has       2434 integration points.
  Task     7 has       2428 integration points.
  Task     8 has       2402 integration points.
  Task     9 has       2402 integration points.
  Task    10 has       2318 integration points.
  Task    11 has       2315 integration points.
  Task    12 has       2395 integration points.
  Task    13 has       2398 integration points.
  Task    14 has       2388 integration points.
  Task    15 has       2399 integration points.
  Task    16 has       2438 integration points.
  Task    17 has       2434 integration points.
  Task    18 has       2465 integration points.
  Task    19 has       2428 integration points.
  Task    20 has       2328 integration points.
  Task    21 has       2426 integration points.
  Task    22 has       2393 integration points.
  Task    23 has       2341 integration points.
  Task    24 has       2328 integration points.
  Task    25 has       2320 integration points.
  Task    26 has       2320 integration points.
  Task    27 has       2403 integration points.
  Task    28 has       2315 integration points.
  Task    29 has       2332 integration points.
  Task    30 has       2341 integration points.
  Task    31 has       2398 integration points.
  Task    32 has       2344 integration points.
  Task    33 has       2422 integration points.
  Task    34 has       2428 integration points.
  Task    35 has       2425 integration points.
  Task    36 has       2372 integration points.
  Task    37 has       2378 integration points.
  Task    38 has       2430 integration points.
  Task    39 has       2340 integration points.
  Initializing partition tables, free-atom densities, potentials, etc. across the integration grid (initialize_grid_storage).
  | initialize_grid_storage: Actual outermost partition radius vs. multipole_radius_free
  | (-- VB: in principle, multipole_radius_free should be larger, hence this output)
  | Species        1: Confinement radius =              6.000000000000000 AA, multipole_radius_free =              6.016994434057369 AA.
  | Species        1: outer_partition_radius set to              6.016994434057369 AA .
  | Species        2: Confinement radius =              6.000000000000000 AA, multipole_radius_free =              6.037996416842453 AA.
  | Species        2: outer_partition_radius set to              6.037996416842453 AA .
  | Original list of interatomic distances with         165 x        165 entries is created.
  | Net number of integration points:    95494
  | of which are non-zero points    :    81394
  | Numerical average free-atom electrostatic potential    :     -1.24348920 eV
  Renormalizing the initial density to the exact electron count on the 3D integration grid.
  | Initial density: Formal number of electrons (from input files) :     110.0000000000
  | Integrated number of electrons on 3D grid     :     109.9999278187
  | Charge integration error                      :      -0.0000721813
  | Normalization factor for density and gradient :       1.0000006562
  Obtaining max. number of non-zero basis functions in each batch (get_n_compute_maxes).
  | Maximal number of non-zero basis functions:     1783 in task     0
  | Maximal number of non-zero basis functions:     1765 in task     1
  | Maximal number of non-zero basis functions:     1764 in task     2
  | Maximal number of non-zero basis functions:     1693 in task     3
  | Maximal number of non-zero basis functions:     1681 in task     4
  | Maximal number of non-zero basis functions:     1706 in task     5
  | Maximal number of non-zero basis functions:     1772 in task     6
  | Maximal number of non-zero basis functions:     1768 in task     7
  | Maximal number of non-zero basis functions:     1812 in task     8
  | Maximal number of non-zero basis functions:     1713 in task     9
  | Maximal number of non-zero basis functions:     1703 in task    10
  | Maximal number of non-zero basis functions:     1778 in task    11
  | Maximal number of non-zero basis functions:     1763 in task    12
  | Maximal number of non-zero basis functions:     1819 in task    13
  | Maximal number of non-zero basis functions:     1692 in task    14
  | Maximal number of non-zero basis functions:     1759 in task    15
  | Maximal number of non-zero basis functions:     1780 in task    16
  | Maximal number of non-zero basis functions:     1782 in task    17
  | Maximal number of non-zero basis functions:     1685 in task    18
  | Maximal number of non-zero basis functions:     1723 in task    19
  | Maximal number of non-zero basis functions:     1686 in task    20
  | Maximal number of non-zero basis functions:     1747 in task    21
  | Maximal number of non-zero basis functions:     1819 in task    22
  | Maximal number of non-zero basis functions:     1823 in task    23
  | Maximal number of non-zero basis functions:     1751 in task    24
  | Maximal number of non-zero basis functions:     1780 in task    25
  | Maximal number of non-zero basis functions:     1740 in task    26
  | Maximal number of non-zero basis functions:     1795 in task    27
  | Maximal number of non-zero basis functions:     1699 in task    28
  | Maximal number of non-zero basis functions:     1751 in task    29
  | Maximal number of non-zero basis functions:     1703 in task    30
  | Maximal number of non-zero basis functions:     1724 in task    31
  | Maximal number of non-zero basis functions:     1773 in task    32
  | Maximal number of non-zero basis functions:     1714 in task    33
  | Maximal number of non-zero basis functions:     1777 in task    34
  | Maximal number of non-zero basis functions:     1721 in task    35
  | Maximal number of non-zero basis functions:     1788 in task    36
  | Maximal number of non-zero basis functions:     1788 in task    37
  | Maximal number of non-zero basis functions:     1776 in task    38
  | Maximal number of non-zero basis functions:     1829 in task    39
  Allocating        0.257 MB for KS_eigenvector_complex
  Integrating Hamiltonian matrix: batch-based integration.
  Time summed over all CPUs for integration: real work       38.083 s, elapsed       39.725 s
  Integrating overlap matrix.
  Time summed over all CPUs for integration: real work       28.762 s, elapsed       30.128 s
  Decreasing sparse matrix size:
   Tolerance:  9.999999824516700E-014
   Hamiltonian matrix
  | Array has   545741 nonzero elements out of   685084 elements
  | Sparsity factor is 0.203
   Overlap matrix
  | Array has   508045 nonzero elements out of   685084 elements
  | Sparsity factor is 0.258
  New size of hamiltonian matrix:      550554

  Updating Kohn-Sham eigenvalues and eigenvectors using ELSI and the ELPA eigensolver.
  Overlap matrix is nonsingular
  | Lowest eigenvalue of overlap  :  0.77E-04
  | Highest eigenvalue of overlap :  0.81E+01
  Finished singularity check of overlap matrix
  | Time :     0.049 s
  Finished Cholesky decomposition
  | Time :     0.003 s
  Finished transformation to standard eigenproblem
  | Time :     0.004 s
  Starting LAPACK eigensolver
  Finished solving standard eigenproblem
  | Time :     0.010 s
  Finished back-transformation of eigenvectors
  | Time :     0.001 s

  Obtaining occupation numbers and chemical potential using ELSI.
  | Chemical potential (Fermi level):    -4.01191077eV
  Writing Kohn-Sham eigenvalues.
  K-point:       1 at    0.000000    0.000000    0.000000 (in units of recip. lattice)

  State    Occupation    Eigenvalue [Ha]    Eigenvalue [eV]
      1       2.00000        -745.361555       -20282.31986
      2       2.00000        -466.361068       -12690.33035
      3       2.00000        -466.361068       -12690.33035
      4       2.00000        -103.305660        -2811.09004
      5       2.00000         -92.326028        -2512.31904
      6       2.00000         -92.326027        -2512.31901
      7       2.00000         -92.326027        -2512.31901
      8       2.00000         -59.226389        -1611.63203
      9       2.00000         -59.226389        -1611.63203
     10       2.00000         -52.084882        -1417.30174
     11       2.00000         -52.084881        -1417.30174
     12       2.00000         -52.084831        -1417.30037
     13       2.00000         -52.084831        -1417.30037
     14       2.00000         -52.084831        -1417.30037
     15       2.00000         -52.084831        -1417.30037
     16       2.00000         -17.535668         -477.16979
     17       2.00000         -13.955058         -379.73646
     18       2.00000         -13.955039         -379.73593
     19       2.00000         -13.955039         -379.73593
     20       2.00000          -8.138021         -221.44681
     21       2.00000          -8.138021         -221.44681
     22       2.00000          -8.137986         -221.44587
     23       2.00000          -8.137986         -221.44587
     24       2.00000          -8.137985         -221.44584
     25       2.00000          -7.873544         -214.25002
     26       2.00000          -7.873544         -214.25002
     27       2.00000          -5.648008         -153.69013
     28       2.00000          -5.648008         -153.69012
     29       2.00000          -5.647411         -153.67386
     30       2.00000          -5.647411         -153.67386
     31       2.00000          -5.647411         -153.67386
     32       2.00000          -5.647411         -153.67386
     33       2.00000          -2.392038          -65.09067
     34       2.00000          -1.979948          -53.87713
     35       2.00000          -1.979948          -53.87713
     36       2.00000          -1.979908          -53.87605
     37       2.00000          -1.979908          -53.87603
     38       2.00000          -1.979908          -53.87603
     39       2.00000          -1.979822          -53.87369
     40       2.00000          -1.979190          -53.85649
     41       2.00000          -1.979190          -53.85649
     42       2.00000          -1.979183          -53.85632
     43       2.00000          -1.979183          -53.85632
     44       2.00000          -1.451721          -39.50333
     45       2.00000          -1.442851          -39.26197
     46       2.00000          -1.442851          -39.26197
     47       2.00000          -0.764074          -20.79152
     48       2.00000          -0.723299          -19.68197
     49       2.00000          -0.430362          -11.71075
     50       2.00000          -0.300139           -8.16720
     51       2.00000          -0.295961           -8.05350
     52       2.00000          -0.295960           -8.05349
     53       2.00000          -0.257937           -7.01882
     54       2.00000          -0.257936           -7.01881
     55       2.00000          -0.214069           -5.82512
     56       0.00000          -0.109576           -2.98172
     57       0.00000          -0.109575           -2.98169
     58       0.00000          -0.101364           -2.75827
     59       0.00000          -0.101363           -2.75824
     60       0.00000          -0.025042           -0.68143
     61       0.00000           0.027862            0.75816
     62       0.00000           0.039293            1.06920
     63       0.00000           0.086707            2.35941
     64       0.00000           0.178115            4.84675
     65       0.00000           0.178115            4.84676
     66       0.00000           0.224430            6.10704
     67       0.00000           0.258505            7.03427
     68       0.00000           0.258508            7.03436
     69       0.00000           0.276365            7.52028
     70       0.00000           0.319284            8.68817
     71       0.00000           0.401123           10.91511
     72       0.00000           0.401125           10.91517

  What follows are estimated values for band gap, HOMO, LUMO, etc.
  | They are estimated on a discrete k-point grid and not necessarily exact.
  | For converged numbers, create a DOS and/or band structure plot on a denser k-grid.

  Highest occupied state (VBM) at     -5.54637956 eV (relative to internal zero)
  | Occupation number:      2.00000000
  | K-point:      38 at    0.333333    0.333333    0.000000 (in units of recip. lattice)

  Lowest unoccupied state (CBM) at    -3.96699358 eV (relative to internal zero)
  | Occupation number:      0.00000000
  | K-point:      19 at    0.166667    0.166667    0.000000 (in units of recip. lattice)

  ESTIMATED overall HOMO-LUMO gap:      1.57938598 eV between HOMO at k-point 38 and LUMO at k-point 19
  | This appears to be an indirect band gap.
  | Smallest direct gap :      1.67061909 eV for k_point 38 at    0.166667    0.166667    0.000000 (in units of recip. lattice)
  The gap value is above 0.2 eV. Unless you are using a very sparse k-point grid,
  this system is most likely an insulator or a semiconductor.
  Calculating total energy contributions from superposition of free atom densities.

  Total energy components:
  | Sum of eigenvalues            :       -5338.55350553 Ha     -145269.43211275 eV
  | XC energy correction          :        -300.84183149 Ha       -8186.32275023 eV
  | XC potential correction       :         391.73618195 Ha       10659.68386947 eV
  | Free-atom electrostatic energy:       -3731.41117270 Ha     -101536.86414791 eV
  | Hartree energy correction     :           0.00000000 Ha           0.00000000 eV
  | Entropy correction            :          -0.00000000 Ha          -0.00000000 eV
  | ---------------------------
  | Total energy                  :       -8979.07032777 Ha     -244332.93514141 eV
  | Total energy, T -> 0          :       -8979.07032777 Ha     -244332.93514141 eV  <-- do not rely on this value for anything but (periodic) metals
  | Electronic free energy        :       -8979.07032777 Ha     -244332.93514141 eV

  Derived energy quantities:
  | Kinetic energy                :        9207.22750275 Ha      250541.40775633 eV
  | Electrostatic energy          :      -17885.45599903 Ha     -486688.02014751 eV
  | Energy correction for multipole
  | error in Hartree potential    :           0.00000000 Ha           0.00000000 eV
  | Sum of eigenvalues per atom                           :      -48423.14403758 eV
  | Total energy (T->0) per atom                          :      -81444.31171380 eV  <-- do not rely on this value for anything but (periodic) metals
  | Electronic free energy per atom                       :      -81444.31171380 eV
  Initialize hartree_potential_storage
  Max. number of atoms included in rho_multipole:            3

  End scf initialization - timings             :  max(cpu_time)    wall_clock(cpu1)
  | Time for scf. initialization               :        3.020 s           3.058 s
  | Boundary condition initialization          :        0.912 s           0.922 s
  | Integration                                :        1.780 s           1.777 s
  | Solution of K.-S. eqns.                    :        0.080 s           0.111 s
  | Grid partitioning                          :        0.136 s           0.135 s
  | Preloading free-atom quantities on grid    :        0.016 s           0.014 s
  | Free-atom superposition energy             :        0.012 s           0.009 s
  | Total energy evaluation                    :        0.004 s           0.000 s

  Partial memory accounting:
  | Current value for overall tracked memory usage on task 0  :          11.269 MB
  | Peak value for overall tracked memory usage on task 0     :          46.282 MB after allocating wave
  | Largest tracked array allocation on task 0 so far         :          25.433 MB  when allocating hamiltonian_shell
  Note:  These values currently only include a subset of arrays which are explicitly tracked.
  The "true" memory usage will be greater.
------------------------------------------------------------

------------------------------------------------------------
          Begin self-consistency iteration #    1

  Date     :  20191026, Time     :  141350.244
------------------------------------------------------------
  Evaluating new KS density using the density matrix
  Evaluating density matrix
  Time summed over all CPUs for getting density from density matrix: real work       79.380 s, elapsed       83.188 s
  Integration grid: deviation in total charge (<rho> - N_e) =   8.824941E-12
  Pulay mixing of updated and previous charge densities.

  Evaluating partitioned Hartree potential by multipole expansion.
  | Analytical far-field extrapolation by fixed multipoles:
  | Hartree multipole sum: apparent total charge =   0.116876E-03
  Summing up the Hartree potential.
  | Estimated reciprocal-space cutoff momentum G_max:         1.90186217 bohr^-1 .
  | Reciprocal lattice points for long-range Hartree potential:     660
  Time summed over all CPUs for potential: real work        5.179 s, elapsed        5.428 s
  | RMS charge density error from multipole expansion :   0.225739E-03
  | Average real-space part of the electrostatic potential :     -0.00038618 eV

  Integrating Hamiltonian matrix: batch-based integration.
  Time summed over all CPUs for integration: real work       36.521 s, elapsed       38.103 s

  Updating Kohn-Sham eigenvalues and eigenvectors using ELSI and the ELPA eigensolver.
  Finished Cholesky decomposition
  | Time :     0.001 s
  Finished transformation to standard eigenproblem
  | Time :     0.003 s
  Starting LAPACK eigensolver
  Finished solving standard eigenproblem
  | Time :     0.008 s
  Finished back-transformation of eigenvectors
  | Time :     0.001 s

  Obtaining occupation numbers and chemical potential using ELSI.
  | Chemical potential (Fermi level):    -4.05514797eV
  Writing Kohn-Sham eigenvalues.
  K-point:       1 at    0.000000    0.000000    0.000000 (in units of recip. lattice)

  State    Occupation    Eigenvalue [Ha]    Eigenvalue [eV]
      1       2.00000        -745.376114       -20282.71604
      2       2.00000        -466.356514       -12690.20641
      3       2.00000        -466.356514       -12690.20641
      4       2.00000        -103.320080        -2811.48242
      5       2.00000         -92.340555        -2512.71434
      6       2.00000         -92.340548        -2512.71416
      7       2.00000         -92.340548        -2512.71416
      8       2.00000         -59.222285        -1611.52037
      9       2.00000         -59.222285        -1611.52037
     10       2.00000         -52.080700        -1417.18796
     11       2.00000         -52.080700        -1417.18796
     12       2.00000         -52.080679        -1417.18739
     13       2.00000         -52.080679        -1417.18739
     14       2.00000         -52.080679        -1417.18739
     15       2.00000         -52.080679        -1417.18739
     16       2.00000         -17.547635         -477.49544
     17       2.00000         -13.967046         -380.06266
     18       2.00000         -13.966998         -380.06135
     19       2.00000         -13.966998         -380.06135
     20       2.00000          -8.150206         -221.77838
     21       2.00000          -8.150206         -221.77838
     22       2.00000          -8.150148         -221.77682
     23       2.00000          -8.150138         -221.77653
     24       2.00000          -8.150138         -221.77653
     25       2.00000          -7.869844         -214.14934
     26       2.00000          -7.869844         -214.14934
     27       2.00000          -5.644228         -153.58727
     28       2.00000          -5.644228         -153.58727
     29       2.00000          -5.643757         -153.57445
     30       2.00000          -5.643757         -153.57445
     31       2.00000          -5.643757         -153.57445
     32       2.00000          -5.643757         -153.57445
     33       2.00000          -2.399761          -65.30082
     34       2.00000          -1.976255          -53.77663
     35       2.00000          -1.976255          -53.77663
     36       2.00000          -1.976214          -53.77551
     37       2.00000          -1.976214          -53.77551
     38       2.00000          -1.976177          -53.77452
     39       2.00000          -1.976090          -53.77215
     40       2.00000          -1.975579          -53.75823
     41       2.00000          -1.975579          -53.75823
     42       2.00000          -1.975572          -53.75806
     43       2.00000          -1.975572          -53.75806
     44       2.00000          -1.458391          -39.68484
     45       2.00000          -1.449704          -39.44845
     46       2.00000          -1.449704          -39.44845
     47       2.00000          -0.761830          -20.73044
     48       2.00000          -0.721088          -19.62180
     49       2.00000          -0.429477          -11.68667
     50       2.00000          -0.298412           -8.12019
     51       2.00000          -0.296608           -8.07112
     52       2.00000          -0.296608           -8.07111
     53       2.00000          -0.258367           -7.03054
     54       2.00000          -0.258367           -7.03052
     55       2.00000          -0.216027           -5.87839
     56       0.00000          -0.110167           -2.99780
     57       0.00000          -0.110166           -2.99777
     58       0.00000          -0.101555           -2.76346
     59       0.00000          -0.101554           -2.76343
     60       0.00000          -0.024258           -0.66009
     61       0.00000           0.028246            0.76861
     62       0.00000           0.039615            1.07799
     63       0.00000           0.088334            2.40370
     64       0.00000           0.179127            4.87431
     65       0.00000           0.179128            4.87432
     66       0.00000           0.224472            6.10821
     67       0.00000           0.259379            7.05806
     68       0.00000           0.259382            7.05815
     69       0.00000           0.277269            7.54488
     70       0.00000           0.320450            8.71987
     71       0.00000           0.402039           10.94004
     72       0.00000           0.402041           10.94010

  What follows are estimated values for band gap, HOMO, LUMO, etc.
  | They are estimated on a discrete k-point grid and not necessarily exact.
  | For converged numbers, create a DOS and/or band structure plot on a denser k-grid.

  Highest occupied state (VBM) at     -5.60722401 eV (relative to internal zero)
  | Occupation number:      2.00000000
  | K-point:      38 at    0.333333    0.333333    0.000000 (in units of recip. lattice)

  Lowest unoccupied state (CBM) at    -4.01025021 eV (relative to internal zero)
  | Occupation number:      0.00000000
  | K-point:      23 at    0.166667    0.666667    0.000000 (in units of recip. lattice)

  ESTIMATED overall HOMO-LUMO gap:      1.59697380 eV between HOMO at k-point 38 and LUMO at k-point 23
  | This appears to be an indirect band gap.
  | Smallest direct gap :      1.64515374 eV for k_point 38 at    0.166667    0.666667    0.000000 (in units of recip. lattice)
  The gap value is above 0.2 eV. Unless you are using a very sparse k-point grid,
  this system is most likely an insulator or a semiconductor.

  Total energy components:
  | Sum of eigenvalues            :       -5338.73849847 Ha     -145274.46602681 eV
  | XC energy correction          :        -300.82956111 Ha       -8185.98885620 eV
  | XC potential correction       :         391.72021748 Ha       10659.24945438 eV
  | Free-atom electrostatic energy:       -3731.41117270 Ha     -101536.86414791 eV
  | Hartree energy correction     :           0.19619623 Ha           5.33877110 eV
  | Entropy correction            :          -0.00000000 Ha          -0.00000000 eV
  | ---------------------------
  | Total energy                  :       -8979.06281856 Ha     -244332.73080543 eV
  | Total energy, T -> 0          :       -8979.06281856 Ha     -244332.73080543 eV  <-- do not rely on this value for anything but (periodic) metals
  | Electronic free energy        :       -8979.06281856 Ha     -244332.73080543 eV

  Derived energy quantities:
  | Kinetic energy                :        9207.12432100 Ha      250538.60003812 eV
  | Electrostatic energy          :      -17885.35757846 Ha     -486685.34198736 eV
  | Energy correction for multipole
  | error in Hartree potential    :          -0.00002785 Ha          -0.00075777 eV
  | Sum of eigenvalues per atom                           :      -48424.82200894 eV
  | Total energy (T->0) per atom                          :      -81444.24360181 eV  <-- do not rely on this value for anything but (periodic) metals
  | Electronic free energy per atom                       :      -81444.24360181 eV

  Self-consistency convergence accuracy:
  | Change of charge density      :  0.2309E+00
  | Change of sum of eigenvalues  : -0.5034E+01 eV
  | Change of total energy        :  0.2043E+00 eV

  End self-consistency iteration #     1       :  max(cpu_time)    wall_clock(cpu1)
  | Time for this iteration                    :        3.296 s           3.290 s
  | Charge density update                      :        2.108 s           2.102 s
  | Density mixing & preconditioning           :        0.032 s           0.030 s
  | Hartree multipole update                   :        0.004 s           0.002 s
  | Hartree multipole summation                :        0.152 s           0.148 s
  | Integration                                :        0.968 s           0.965 s
  | Solution of K.-S. eqns.                    :        0.044 s           0.042 s
  | Total energy evaluation                    :        0.004 s           0.000 s

  Partial memory accounting:
  | Current value for overall tracked memory usage on task 0  :          11.269 MB
  | Peak value for overall tracked memory usage on task 0     :          50.395 MB after allocating gradient_basis_wave
  | Largest tracked array allocation on task 0 so far         :          25.433 MB  when allocating hamiltonian_shell
  Note:  These values currently only include a subset of arrays which are explicitly tracked.
  The "true" memory usage will be greater.
------------------------------------------------------------

------------------------------------------------------------
          Begin self-consistency iteration #    2

  Date     :  20191026, Time     :  141353.535
------------------------------------------------------------
  Evaluating new KS density using the density matrix
  Evaluating density matrix
  Time summed over all CPUs for getting density from density matrix: real work       79.260 s, elapsed       83.003 s
  Integration grid: deviation in total charge (<rho> - N_e) =   8.981260E-12
  Pulay mixing of updated and previous charge densities.

  Evaluating partitioned Hartree potential by multipole expansion.
  | Analytical far-field extrapolation by fixed multipoles:
  | Hartree multipole sum: apparent total charge =   0.163359E-02
  Summing up the Hartree potential.
  Time summed over all CPUs for potential: real work        5.972 s, elapsed        6.213 s
  | RMS charge density error from multipole expansion :   0.199761E-02
  | Average real-space part of the electrostatic potential :     -0.00333051 eV

  Integrating Hamiltonian matrix: batch-based integration.
  Time summed over all CPUs for integration: real work       36.514 s, elapsed       38.093 s

  Updating Kohn-Sham eigenvalues and eigenvectors using ELSI and the ELPA eigensolver.
  Finished Cholesky decomposition
  | Time :     0.001 s
  Finished transformation to standard eigenproblem
  | Time :     0.003 s
  Starting LAPACK eigensolver
  Finished solving standard eigenproblem
  | Time :     0.008 s
  Finished back-transformation of eigenvectors
  | Time :     0.001 s

  Obtaining occupation numbers and chemical potential using ELSI.
  | Chemical potential (Fermi level):    -4.65109261eV
  What follows are estimated values for band gap, HOMO, LUMO, etc.
  | They are estimated on a discrete k-point grid and not necessarily exact.
  | For converged numbers, create a DOS and/or band structure plot on a denser k-grid.

  Highest occupied state (VBM) at     -6.07924416 eV (relative to internal zero)
  | Occupation number:      2.00000000
  | K-point:      38 at    0.333333    0.333333    0.000000 (in units of recip. lattice)

  Lowest unoccupied state (CBM) at    -4.60738952 eV (relative to internal zero)
  | Occupation number:      0.00000000
  | K-point:      38 at    0.333333    0.333333    0.000000 (in units of recip. lattice)

  ESTIMATED overall HOMO-LUMO gap:      1.47185465 eV between HOMO at k-point 38 and LUMO at k-point 38
  | This appears to be a direct band gap.
  The gap value is above 0.2 eV. Unless you are using a very sparse k-point grid,
  this system is most likely an insulator or a semiconductor.

  Checking to see if s.c.f. parameters should be adjusted.
  The system likely has a gap. Increased the default Pulay mixing parameter (charge_mix_param). Value:   0.200000 .
  Kept the default occupation width. Value:   0.010000 eV.

  Total energy components:
  | Sum of eigenvalues            :       -5340.24632702 Ha     -145315.49612912 eV
  | XC energy correction          :        -300.74052864 Ha       -8183.56615964 eV
  | XC potential correction       :         391.60400675 Ha       10656.08719932 eV
  | Free-atom electrostatic energy:       -3731.41117270 Ha     -101536.86414791 eV
  | Hartree energy correction     :           1.75751377 Ha          47.82438307 eV
  | Entropy correction            :          -0.00000000 Ha          -0.00000000 eV
  | ---------------------------
  | Total energy                  :       -8979.03650784 Ha     -244332.01485427 eV
  | Total energy, T -> 0          :       -8979.03650784 Ha     -244332.01485427 eV  <-- do not rely on this value for anything but (periodic) metals
  | Electronic free energy        :       -8979.03650784 Ha     -244332.01485427 eV

  Derived energy quantities:
  | Kinetic energy                :        9206.26571545 Ha      250515.23619235 eV
  | Electrostatic energy          :      -17884.56169465 Ha     -486663.68488699 eV
  | Energy correction for multipole
  | error in Hartree potential    :          -0.00025385 Ha          -0.00690763 eV
  | Sum of eigenvalues per atom                           :      -48438.49870971 eV
  | Total energy (T->0) per atom                          :      -81444.00495142 eV  <-- do not rely on this value for anything but (periodic) metals
  | Electronic free energy per atom                       :      -81444.00495142 eV

  Self-consistency convergence accuracy:
  | Change of charge density      :  0.2069E+00
  | Change of sum of eigenvalues  : -0.4103E+02 eV
  | Change of total energy        :  0.7160E+00 eV

  End self-consistency iteration #     2       :  max(cpu_time)    wall_clock(cpu1)
  | Time for this iteration                    :        3.312 s           3.309 s
  | Charge density update                      :        2.100 s           2.096 s
  | Density mixing & preconditioning           :        0.036 s           0.035 s
  | Hartree multipole update                   :        0.004 s           0.002 s
  | Hartree multipole summation                :        0.168 s           0.168 s
  | Integration                                :        0.968 s           0.963 s
  | Solution of K.-S. eqns.                    :        0.044 s           0.044 s
  | Total energy evaluation                    :        0.000 s           0.000 s

  Partial memory accounting:
  | Current value for overall tracked memory usage on task 0  :          11.270 MB
  | Peak value for overall tracked memory usage on task 0     :          50.395 MB after allocating gradient_basis_wave
  | Largest tracked array allocation on task 0 so far         :          25.433 MB  when allocating hamiltonian_shell
  Note:  These values currently only include a subset of arrays which are explicitly tracked.
  The "true" memory usage will be greater.
------------------------------------------------------------

------------------------------------------------------------
          Begin self-consistency iteration #    3

  Date     :  20191026, Time     :  141356.844
------------------------------------------------------------
  Evaluating new KS density using the density matrix
  Evaluating density matrix
  Time summed over all CPUs for getting density from density matrix: real work       79.257 s, elapsed       82.959 s
  Integration grid: deviation in total charge (<rho> - N_e) =   8.881784E-12
  Pulay mixing of updated and previous charge densities.

  Evaluating partitioned Hartree potential by multipole expansion.
  | Analytical far-field extrapolation by fixed multipoles:
  | Hartree multipole sum: apparent total charge =   0.169530E-02
  Summing up the Hartree potential.
  Time summed over all CPUs for potential: real work        6.019 s, elapsed        6.339 s
  | RMS charge density error from multipole expansion :   0.217970E-02
  | Average real-space part of the electrostatic potential :      0.00051231 eV

  Integrating Hamiltonian matrix: batch-based integration.
  Time summed over all CPUs for integration: real work       36.501 s, elapsed       38.101 s

  Updating Kohn-Sham eigenvalues and eigenvectors using ELSI and the ELPA eigensolver.
  Finished Cholesky decomposition
  | Time :     0.001 s
  Finished transformation to standard eigenproblem
  | Time :     0.003 s
  Starting LAPACK eigensolver
  Finished solving standard eigenproblem
  | Time :     0.008 s
  Finished back-transformation of eigenvectors
  | Time :     0.001 s

  Obtaining occupation numbers and chemical potential using ELSI.
  | Chemical potential (Fermi level):    -3.45521912eV
  What follows are estimated values for band gap, HOMO, LUMO, etc.
  | They are estimated on a discrete k-point grid and not necessarily exact.
  | For converged numbers, create a DOS and/or band structure plot on a denser k-grid.

  Highest occupied state (VBM) at     -4.84038943 eV (relative to internal zero)
  | Occupation number:      2.00000000
  | K-point:      38 at    0.333333    0.333333    0.000000 (in units of recip. lattice)

  Lowest unoccupied state (CBM) at    -3.41030936 eV (relative to internal zero)
  | Occupation number:      0.00000000
  | K-point:      23 at    0.166667    0.666667    0.000000 (in units of recip. lattice)

  ESTIMATED overall HOMO-LUMO gap:      1.43008007 eV between HOMO at k-point 38 and LUMO at k-point 23
  | This appears to be an indirect band gap.
  | Smallest direct gap :      1.64150585 eV for k_point 38 at    0.166667    0.666667    0.000000 (in units of recip. lattice)
  The gap value is above 0.2 eV. Unless you are using a very sparse k-point grid,
  this system is most likely an insulator or a semiconductor.

  Total energy components:
  | Sum of eigenvalues            :       -5336.52731521 Ha     -145214.29666899 eV
  | XC energy correction          :        -300.80208769 Ha       -8185.24126654 eV
  | XC potential correction       :         391.68396164 Ha       10658.26288260 eV
  | Free-atom electrostatic energy:       -3731.41117270 Ha     -101536.86414791 eV
  | Hartree energy correction     :          -1.99844000 Ha         -54.38031916 eV
  | Entropy correction            :          -0.00000000 Ha          -0.00000000 eV
  | ---------------------------
  | Total energy                  :       -8979.05505396 Ha     -244332.51952001 eV
  | Total energy, T -> 0          :       -8979.05505396 Ha     -244332.51952001 eV  <-- do not rely on this value for anything but (periodic) metals
  | Electronic free energy        :       -8979.05505396 Ha     -244332.51952001 eV

  Derived energy quantities:
  | Kinetic energy                :        9207.18511468 Ha      250540.25431816 eV
  | Electrostatic energy          :      -17885.43808095 Ha     -486687.53257163 eV
  | Energy correction for multipole
  | error in Hartree potential    :          -0.00026202 Ha          -0.00713003 eV
  | Sum of eigenvalues per atom                           :      -48404.76555633 eV
  | Total energy (T->0) per atom                          :      -81444.17317334 eV  <-- do not rely on this value for anything but (periodic) metals
  | Electronic free energy per atom                       :      -81444.17317334 eV

  Self-consistency convergence accuracy:
  | Change of charge density      :  0.7478E-01
  | Change of sum of eigenvalues  :  0.1012E+03 eV
  | Change of total energy        : -0.5047E+00 eV

  End self-consistency iteration #     3       :  max(cpu_time)    wall_clock(cpu1)
  | Time for this iteration                    :        3.324 s           3.320 s
  | Charge density update                      :        2.100 s           2.095 s
  | Density mixing & preconditioning           :        0.036 s           0.036 s
  | Hartree multipole update                   :        0.004 s           0.001 s
  | Hartree multipole summation                :        0.172 s           0.171 s
  | Integration                                :        0.976 s           0.973 s
  | Solution of K.-S. eqns.                    :        0.044 s           0.044 s
  | Total energy evaluation                    :        0.004 s           0.000 s

  Partial memory accounting:
  | Current value for overall tracked memory usage on task 0  :          11.270 MB
  | Peak value for overall tracked memory usage on task 0     :          50.396 MB after allocating gradient_basis_wave
  | Largest tracked array allocation on task 0 so far         :          25.433 MB  when allocating hamiltonian_shell
  Note:  These values currently only include a subset of arrays which are explicitly tracked.
  The "true" memory usage will be greater.
------------------------------------------------------------

------------------------------------------------------------
[...]
     66       1.00000                     -66.164338         -66.164337             0.000000
     67       1.00000                     -52.774622         -53.290146            12.874191
     68       1.00000                     -52.774622         -53.290146             0.000000
     69       1.00000                     -52.774619         -53.289901             0.000245
     70       1.00000                     -52.774619         -53.289901             0.000000
     71       1.00000                     -52.774256         -53.249479             0.040421
     72       1.00000                     -52.774256         -53.249479             0.000000
     73       1.00000                     -52.774253         -53.249120             0.000360
     74       1.00000                     -52.774253         -53.249120             0.000000
     75       1.00000                     -52.732301         -52.425353             0.823767
     76       1.00000                     -52.732301         -52.425353             0.000000
     77       1.00000                     -52.732299         -52.424986             0.000368
     78       1.00000                     -52.732299         -52.424986             0.000000
     79       1.00000                     -52.731296         -52.391395             0.033591
     80       1.00000                     -52.731296         -52.391395             0.000000
     81       1.00000                     -52.731293         -52.390604             0.000790
     82       1.00000                     -52.731293         -52.390604             0.000000
     83       1.00000                     -52.715989         -52.372917             0.017687
     84       1.00000                     -52.715989         -52.372917             0.000000
     85       1.00000                     -52.713732         -52.371867             0.001051
     86       1.00000                     -52.713732         -52.371867             0.000000
     87       1.00000                     -40.320360         -41.837477            10.534390
     88       1.00000                     -40.320360         -41.837477             0.000000
     89       1.00000                     -40.130450         -39.365179             2.472298
     90       1.00000                     -40.130450         -39.365179             0.000000
     91       1.00000                     -40.130437         -39.227499             0.137680
     92       1.00000                     -40.130437         -39.227499             0.000000
     93       1.00000                     -19.643458         -19.643422            19.584077
     94       1.00000                     -19.643458         -19.643422             0.000000
     95       1.00000                     -18.604003         -18.600231             1.043191
     96       1.00000                     -18.604003         -18.600231             0.000000
     97       1.00000                     -10.833101         -10.833560             7.766671
     98       1.00000                     -10.833101         -10.833560             0.000000
     99       1.00000                      -7.520293          -7.562883             3.270677
    100       1.00000                      -7.520293          -7.562883             0.000000
    101       1.00000                      -7.520258          -7.522394             0.040490
    102       1.00000                      -7.520258          -7.522394             0.000000
    103       1.00000                      -7.220414          -7.178812             0.343582
    104       1.00000                      -7.220414          -7.178812             0.000000
    105       1.00000                      -6.511961          -6.616307             0.562505
    106       1.00000                      -6.511961          -6.616307             0.000000
    107       1.00000                      -6.511952          -6.417678             0.198629
    108       1.00000                      -6.511952          -6.417678             0.000000
    109       1.00000                      -5.638206          -5.619678             0.798000
    110       1.00000                      -5.638206          -5.619678             0.000000
    111       0.00000                      -2.429598          -2.560046             3.059632
    112       0.00000                      -2.429598          -2.560046             0.000000
    113       0.00000                      -2.429585          -2.291436             0.268610
    114       0.00000                      -2.429585          -2.291436             0.000000
    115       0.00000                      -2.169948          -2.265873             0.025562
    116       0.00000                      -2.169948          -2.265873             0.000000
    117       0.00000                      -2.169931          -2.043554             0.222320
    118       0.00000                      -2.169931          -2.043554             0.000000
    119       0.00000                       0.012575           0.013167             2.056721
    120       0.00000                       0.012575           0.013167             0.000000
    121       0.00000                       1.406829           1.409410             1.396243
    122       0.00000                       1.406829           1.409410             0.000000
    123       0.00000                       1.416310           1.420071             0.010661
    124       0.00000                       1.416310           1.420071             0.000000
    125       0.00000                       3.350033           3.351599             1.931528
    126       0.00000                       3.350033           3.351599             0.000000
    127       0.00000                       5.678801           5.651338             2.299739
    128       0.00000                       5.678801           5.651338             0.000000
    129       0.00000                       5.678843           5.717378             0.066040
    130       0.00000                       5.678843           5.717378             0.000000
    131       0.00000                       6.685738           6.687874             0.970496
    132       0.00000                       6.685738           6.687874             0.000000
    133       0.00000                       7.794071           7.795483             1.107609
    134       0.00000                       7.794071           7.795483             0.000000
    135       0.00000                       7.794089           7.795874             0.000391
    136       0.00000                       7.794089           7.795874             0.000000
    137       0.00000                       8.279477           8.280573             0.484699
    138       0.00000                       8.279477           8.280573             0.000000
    139       0.00000                       9.631485           9.632786             1.352213
    140       0.00000                       9.631485           9.632786             0.000000
    141       0.00000                      11.661814          11.650580             2.017794
    142       0.00000                      11.661814          11.650580             0.000000
    143       0.00000                      11.661859          11.673765             0.023185
    144       0.00000                      11.661859          11.673765             0.000000

  What follows are estimated values for band gap, HOMO, LUMO, etc.
  | They are estimated on a discrete k-point grid and not necessarily exact.
  | For converged numbers, create a DOS and/or band structure plot on a denser k-grid.

  Highest occupied state (VBM) at     -5.25687725 eV (relative to internal zero)
  | Occupation number:      1.00000000
  | K-point:      38 at    0.333333    0.333333    0.000000 (in units of recip. lattice)

  Lowest unoccupied state (CBM) at    -3.85268882 eV (relative to internal zero)
  | Occupation number:      0.00000000
  | K-point:      38 at    0.333333    0.333333    0.000000 (in units of recip. lattice)

  ESTIMATED overall HOMO-LUMO gap:      1.40418843 eV between HOMO at k-point 38 and LUMO at k-point 38
  | This appears to be a direct band gap.
  The gap value is above 0.2 eV. Unless you are using a very sparse k-point grid,
  this system is most likely an insulator or a semiconductor.

  Spin-orbit coupling                                     :  max(cpu_time)    wall_clock(cpu1)
  | Computing matrix elements for SOC operator            :          7.372               7.369
  | Constructing second-variational Hamiltonian           :          0.012               0.013
  | Diagonalizing second-variational Hamiltonian          :          0.012               0.013
  | Syncing data and calculating occupations              :          0.032               0.032
  | Writing out data, calculating band gaps, etc.         :          0.004               0.000
  | Total SOC time                                        :          7.436               7.427

  Partial memory accounting:
  | Current value for overall tracked memory usage on task 0  :          11.440 MB
  | Peak value for overall tracked memory usage on task 0     :          58.929 MB after allocating +potential_shell
  | Largest tracked array allocation on task 0 so far         :          25.433 MB  when allocating hamiltonian_shell
  Note:  These values currently only include a subset of arrays which are explicitly tracked.
  The "true" memory usage will be greater.
 ------------------------------------------------------------
 mulliken decomposition of band k points for SOC in lapack

  -------------------------------------------------------------------
  Writing the requested band structure output (LAPACK version):
  -------------------------------------------------------------------

  Integrating Hamiltonian matrix: batch-based integration.
  Time summed over all CPUs for integration: real work       36.504 s, elapsed       38.100 s
  Integrating SOC matrix: batch-based integration p2 version.
  Allocating        0.081 MB for dist_tab
  Allocating        0.081 MB for dist_tab_sq
  Allocating        0.242 MB for dir_tab
  Allocating        0.010 MB for i_basis_fns
  Allocating        0.316 MB for i_basis_fns_inv
  Allocating        0.010 MB for i_atom_fns
  Allocating        6.847 MB for gradient_basis_wave
  Allocating        0.010 MB for ylm_tab
  Allocating        0.003 MB for radial_wave
  Allocating        0.003 MB for radial_wave_deriv
  Allocating        0.013 MB for i_basis
  Allocating       25.433 MB for soc_shell
  Allocating        0.036 MB for cartesians
  Allocating        0.031 MB for sum_gradient
  Allocating        0.062 MB for sum_hessian
  Allocating        0.001 MB for potential_shell

  Treating all   51 k-points in band plot segment #   1:


  Scalar-relativistic "band gap" along reciprocal space direction number:    1
  | Lowest unoccupied state:      -3.48783543 eV
  | Highest occupied state :      -5.63820558 eV
  | Energy difference      :       2.15037015 eV


Spin-orbit-coupled "band gap" along reciprocal space direction number:    1
  | Lowest unoccupied state:      -3.48296747 eV
  | Highest occupied state :      -5.61967788 eV
  | Energy difference      :       2.13671042 eV


  Treating all   51 k-points in band plot segment #   2:


  Scalar-relativistic "band gap" along reciprocal space direction number:    2
  | Lowest unoccupied state:      -3.84087313 eV
  | Highest occupied state :      -5.35423879 eV
  | Energy difference      :       1.51336566 eV


Spin-orbit-coupled "band gap" along reciprocal space direction number:    2
  | Lowest unoccupied state:      -3.85268882 eV
  | Highest occupied state :      -5.25687725 eV
  | Energy difference      :       1.40418843 eV


  Treating all   51 k-points in band plot segment #   3:


  Scalar-relativistic "band gap" along reciprocal space direction number:    3
  | Lowest unoccupied state:      -3.84087313 eV
  | Highest occupied state :      -5.35423879 eV
  | Energy difference      :       1.51336566 eV


Spin-orbit-coupled "band gap" along reciprocal space direction number:    3
  | Lowest unoccupied state:      -3.85268882 eV
  | Highest occupied state :      -5.25687725 eV
  | Energy difference      :       1.40418843 eV

  Scalar-relativistic "band gap" of total set of bands:
  | Lowest unoccupied state:      -3.84087313 eV
  | Highest occupied state :      -5.35423879 eV
  | Energy difference      :       1.51336566 eV

  Spin-orbit-coupled "band gap" of total set of bands:
  | Lowest unoccupied state:      -3.85268882 eV
  | Highest occupied state :      -5.25687725 eV
  | Energy difference      :       1.40418843 eV


  Band Structure                                          :  max(cpu_time) wall_clock(cpu1)
  | Total Time                                            :         13.284           13.595
------------------------------------------------------------

------------------------------------------------------------------------------
  Final output of selected total energy values:

  The following output summarizes some interesting total energy values
  at the end of a run (AFTER all relaxation, molecular dynamics, etc.).

  | Total energy of the DFT / Hartree-Fock s.c.f. calculation      :        -244331.960677500 eV
  | Final zero-broadening corrected energy (caution - metals only) :        -244331.960677500 eV
  | Total energy after non-SC SOC correction (DO NOT USE)          :        -244332.103763693 eV
  | For reference only, the value of 1 Hartree used in FHI-aims is :             27.211384500 eV

  Before relying on these values, please be sure to understand exactly which
  total energy value is referred to by a given number. Different objects may
  all carry the same name 'total energy'. Definitions:

  Total energy of the DFT / Hartree-Fock s.c.f. calculation:
  | Note that this energy does not include ANY quantities calculated after the
  | s.c.f. cycle, in particular not ANY RPA, MP2, etc. many-body perturbation terms.

  Final zero-broadening corrected energy:
  | For metallic systems only, a broadening of the occupation numbers at the Fermi
  | level can be extrapolated back to zero broadening by an electron-gas inspired
  | formula. For all systems that are not real metals, this value can be
  | meaningless and should be avoided.

------------------------------------------------------------------------------
  Methods described in the following list of references were used in this FHI-aims run.
  If you publish the results, please make sure to cite these reference if they apply.
  FHI-aims is an academic code, and for our developers (often, Ph.D. students
  and postdocs), scientific credit in the community is essential.
  Thank you for helping us!

  For any use of FHI-aims, please cite:

    Volker Blum, Ralf Gehrke, Felix Hanke, Paula Havu, Ville Havu,
    Xinguo Ren, Karsten Reuter, and Matthias Scheffler
    'Ab initio molecular simulations with numeric atom-centered orbitals'
    Computer Physics Communications 180, 2175-2196 (2009)
    http://dx.doi.org/10.1016/j.cpc.2009.06.022


  For second-variational spin-orbit coupling used in your run, please cite:

    William P. Huhn and Volker Blum,
    'One-hundred-three compound band-structure benchmark of post-self-consistent'
    'spin-orbit coupling treatments in density functional theory'
    Phys. Rev. Materials 1, 033803 (2017).


  The scalable eigensolver library ELPA was used in your run.
  ELPA is essential especially for large systems on hundreds or thousands of CPUs.
  For ELPA, please cite:

    Andreas Marek, Volker Blum, Rainer Johanni, Ville Havu, Bruno Lang,
    Thomas Auckenthaler, Alexander Heinecke, Hans-Joachim Bungartz, and Hermann Lederer,
    'The ELPA Library - Scalable Parallel Eigenvalue Solutions
    for Electronic Structure Theory and Computational Science'
    The Journal of Physics: Condensed Matter 26, 213201 (2014).
    http://dx.doi.org/10.1088/0953-8984/26/21/213201


  The ELSI infrastructure was used in your run to solve the Kohn-Sham electronic structure.
  Please check out http://elsi-interchange.org to learn more.
  If scalability is important for your project, please acknowledge ELSI by citing:

    V. W-z. Yu, F. Corsetti, A. Garcia, W. P. Huhn, M. Jacquelin, W. Jia,
    B. Lange, L. Lin, J. Lu, W. Mi, A. Seifitokaldani, A. Vazquez-Mayagoitia,
    C. Yang, H. Yang, and V. Blum
    'ELSI: A unified software interface for Kohn-Sham electronic structure solvers'
    Computer Physics Communications 222, 267-285 (2018).
    http://dx.doi.org/10.1016/j.cpc.2017.09.007


  For the real-space grid partitioning and parallelization used in this calculation, please cite:

    Ville Havu, Volker Blum, Paula Havu, and Matthias Scheffler,
    'Efficient O(N) integration for all-electron electronic structure calculation'
    'using numerically tabulated basis functions'
    Journal of Computational Physics 228, 8367-8379 (2009).
    http://dx.doi.org/10.1016/j.jcp.2009.08.008

  Of course, there are many other important community references, e.g., those cited in the
  above references. Our list is limited to references that describe implementations in the
  FHI-aims code. The reason is purely practical (length of this list) - please credit others as well.

------------------------------------------------------------
          Leaving FHI-aims.
          Date     :  20191026, Time     :  141646.935

          Computational steps:
          | Number of self-consistency cycles          :           47
          | Number of SCF (re)initializations          :            1

          Detailed time accounting                     :  max(cpu_time)    wall_clock(cpu1)
          | Total time                                 :      180.752 s         181.097 s
          | Preparation time                           :        0.512 s           0.671 s
          | Boundary condition initalization           :        0.912 s           0.922 s
          | Grid partitioning                          :        0.136 s           0.135 s
          | Preloading free-atom quantities on grid    :        0.016 s           0.014 s
          | Free-atom superposition energy             :        0.012 s           0.009 s
          | Total time for integrations                :       47.280 s          47.092 s
          | Total time for solution of K.-S. equations :        2.164 s           2.165 s
          | Total time for density update              :       98.720 s          98.506 s
          | Total time for mixing & preconditioning    :        1.520 s           1.453 s
          | Total time for Hartree multipole update    :        0.188 s           0.087 s
          | Total time for Hartree multipole sum       :        8.280 s           8.193 s
          | Total time for total energy evaluation     :        0.144 s           0.007 s
          | Total time for scaled ZORA corrections     :        0.000 s           0.000 s
          | Total time for perturbative SOC            :        7.436 s           7.427 s

          Partial memory accounting:
          | Residual value for overall tracked memory usage across tasks :       -2096.271 MB (should be 0.000 MB)
          |
          | Largest tracked array allocation (hamiltonian_shell):
          |   Minimum:       22.606 MB (on task  5)
          |   Maximum:       26.762 MB (on task 40)
          |   Average:       24.602 MB
          |
          | Because the residual tracked memory usage was not zero, the peak value for overall
          | tracked memory usage was not output, as it is probably incorrect.  This is likely due
          | to a missing aims_deallocate statement in the source code, which should be otherwise
          | harmless.
          |
          Note:  These values currently only include a subset of arrays which are explicitly tracked.
          The "true" memory usage will be greater.

          Have a nice day.
------------------------------------------------------------
