  MPI-parallelism will be employed.
------------------------------------------------------------
          Invoking FHI-aims ...
          Version 171221_1
          Compiled on 2018/11/06 at 11:18:49 on host headnode.

          When using FHI-aims, please cite the following reference:

          Volker Blum, Ralf Gehrke, Felix Hanke, Paula Havu,
          Ville Havu, Xinguo Ren, Karsten Reuter, and Matthias Scheffler,
          'Ab Initio Molecular Simulations with Numeric Atom-Centered Orbitals',
          Computer Physics Communications 180, 2175-2196 (2009)

          For any questions about FHI-aims, please visit the aimsclub website
          with its forums and wiki. Contributions to both the forums and the
          wiki are warmly encouraged - they are for you, and everyone is welcome there.

------------------------------------------------------------



  Date     :  20191025, Time     :  103729.070
  Time zero on CPU 1             :   0.304000000000000E+00  s.
  Internal wall clock time zero  :           341231849.070  s.

  FHI-aims created a unique identifier for this run for later identification
  aims_uuid : 8A3ED814-0A29-4481-A3D5-3749FC4F4E85

  Using       80 parallel tasks.
  Task        0 on host t049 reporting.
  Task        1 on host t049 reporting.
  Task        2 on host t049 reporting.
  Task        3 on host t049 reporting.
  Task        4 on host t049 reporting.
  Task        5 on host t049 reporting.
  Task        6 on host t049 reporting.
  Task        7 on host t049 reporting.
  Task        8 on host t049 reporting.
  Task        9 on host t049 reporting.
  Task       10 on host t049 reporting.
  Task       11 on host t049 reporting.
  Task       12 on host t049 reporting.
  Task       13 on host t049 reporting.
  Task       14 on host t049 reporting.
  Task       15 on host t049 reporting.
  Task       16 on host t049 reporting.
  Task       17 on host t049 reporting.
  Task       18 on host t049 reporting.
  Task       19 on host t049 reporting.
  Task       20 on host t045 reporting.
  Task       21 on host t045 reporting.
  Task       22 on host t045 reporting.
  Task       23 on host t045 reporting.
  Task       24 on host t045 reporting.
  Task       25 on host t045 reporting.
  Task       26 on host t045 reporting.
  Task       27 on host t045 reporting.
  Task       28 on host t045 reporting.
  Task       29 on host t045 reporting.
  Task       30 on host t045 reporting.
  Task       31 on host t045 reporting.
  Task       32 on host t045 reporting.
  Task       33 on host t045 reporting.
  Task       34 on host t045 reporting.
  Task       35 on host t045 reporting.
  Task       36 on host t045 reporting.
  Task       37 on host t045 reporting.
  Task       38 on host t045 reporting.
  Task       39 on host t045 reporting.
  Task       40 on host t044 reporting.
  Task       41 on host t044 reporting.
  Task       42 on host t044 reporting.
  Task       43 on host t044 reporting.
  Task       44 on host t044 reporting.
  Task       45 on host t044 reporting.
  Task       46 on host t044 reporting.
  Task       47 on host t044 reporting.
  Task       48 on host t044 reporting.
  Task       49 on host t044 reporting.
  Task       50 on host t044 reporting.
  Task       51 on host t044 reporting.
  Task       52 on host t044 reporting.
  Task       53 on host t044 reporting.
  Task       54 on host t044 reporting.
  Task       55 on host t044 reporting.
  Task       56 on host t044 reporting.
  Task       57 on host t044 reporting.
  Task       58 on host t044 reporting.
  Task       59 on host t044 reporting.
  Task       60 on host t043 reporting.
  Task       61 on host t043 reporting.
  Task       62 on host t043 reporting.
  Task       63 on host t043 reporting.
  Task       64 on host t043 reporting.
  Task       65 on host t043 reporting.
  Task       66 on host t043 reporting.
  Task       67 on host t043 reporting.
  Task       68 on host t043 reporting.
  Task       69 on host t043 reporting.
  Task       70 on host t043 reporting.
  Task       71 on host t043 reporting.
  Task       72 on host t043 reporting.
  Task       73 on host t043 reporting.
  Task       74 on host t043 reporting.
  Task       75 on host t043 reporting.
  Task       76 on host t043 reporting.
  Task       77 on host t043 reporting.
  Task       78 on host t043 reporting.
  Task       79 on host t043 reporting.

  Performing system and environment tests:
  | Environment variable OMP_NUM_THREADS correctly set to 1.
  | Stacksize not measured: no C compiler
  | Checking for scalapack...
  | Testing pdtran()...
  | All pdtran() tests passed.

  Obtaining array dimensions for all initial allocations:
  
  -----------------------------------------------------------------------
  Parsing control.in (first pass over file, find array dimensions only).
  The contents of control.in will be repeated verbatim below
  unless switched off by setting 'verbatim_writeout .false.' .
  in the first line of control.in .
  -----------------------------------------------------------------------
  
  #===============================================================================
  # FHI-aims file: ./control.in
  # Created using the Atomic Simulation Environment (ASE)
  # Wed Oct 23 16:37:33 2019
  #
  # List of parameters used to initialize the calculator:
  #     species_dir : /chemsoft/FHI-aims/171221_1/species_defaults/tight
  #     spin : none
  #     k_grid : [6, 6, 1]
  #     sc_accuracy_etot : 1E-6
  #     sc_iter_limit : 500
  #     xc : pbe
  #     sc_accuracy_eev : 1E-3
  #     relativistic : ('atomic_zora', 'scalar')
  #===============================================================================
  spin                               none
  k_grid                             12 12 1
  sc_accuracy_etot                   1E-6
  sc_iter_limit                      500
  ### band structure section
  output band 0.000000 0.000000 0.000000    0.500000 0.000000 0.000000  31  G M
  output band 0.500000 0.000000 0.000000    0.333333 0.333333 0.000000  31  M K
  output band 0.333333 0.333333 0.000000    0.000000 0.000000 0.000000  31  K G
  xc                                 pbe
  qpe_calc                           gw_expt
  anacon_type                        0
  RI_method                          V
  exx_band_structure_version         1
  #periodic_hf    coulomb_threshold   10E-6
  sc_accuracy_eev                    1E-3
  relativistic                       atomic_zora scalar
  #===============================================================================
  ################################################################################
  #
  #  FHI-aims code project
  # Volker Blum, Fritz Haber Institute Berlin, 2009
  #
  #  Suggested "tight" defaults for Mo atom (to be pasted into control.in file)
  #
  ################################################################################
    species        Mo
  #     global species definitions
      nucleus             42
      mass                95.94
  #
      l_hartree           6
  #
      cut_pot             6.0  2.0  1.0
      basis_dep_cutoff    0
  #
      radial_base         59 7.0
      radial_multiplier   2
      angular_grids specified
        division   0.3117   50
        division   0.6750  110
        division   1.0351  194
        division   1.2073  302
        division   1.6402  434
        division   1.9185  590
        division   2.0237  770
        division   2.0980  974
        division   2.7972 1202
        outer_grid  974
  #      outer_grid  434
  ################################################################################
  #
  #  Definition of "minimal" basis
  #
  ################################################################################
  #     valence basis states
      valence      5  s   1.
      valence      4  p   6.
      valence      4  d   5.
  #     ion occupancy
      ion_occ     5  s   0.
      ion_occ     4  p   6.
      ion_occ     4  d   4.
  ################################################################################
  #
  #  Suggested additional basis functions. For production calculations,
  #  uncomment them one after another (the most important basis functions are
  #  listed first).
  #
  #  Constructed for dimers: 1.675 A, 1.9 A, 2.375 A, 3.00 A, 4.00 A
  #
  ################################################################################
  #  "First tier"  - max. impr. -711.23  meV, min. impr. -21.07 meV
       hydro 4 f 8.4
       hydro 3 d 2.8
       ionic 5 p auto
       hydro 5 g 12
       ionic 5 s auto
  #  "Second tier" - max. impr. -39.38  meV, min. impr. -2.68 meV
  #     hydro 4 f 12.4
  #     hydro 3 d 3.3
  #     hydro 6 h 17.2
  #     hydro 4 f 7.6
  #     hydro 3 p 3.0
  #     hydro 1 s 0.65
  #  "Third tier"  - max. impr. -5.50 meV, min. impr. -0.47 meV
  #     hydro 4 f 29.2
  #     hydro 5 g 11.2
  #     hydro 3 d 6.8
  #     hydro 6 h 14.8
  #     hydro 2 p 2.3
  #     hydro 4 s 3.8
  #  "Fourth tier"  - max. impr. -0.58 meV, min. impr. -0.19 meV
  #     hydro 5 f 6.8
  #     hydro 5 d 14.8
  #     hydro 6 s 7.8
  #     hydro 5 g 20.8
  #     hydro 5 d 10.4
  #     hydro 5 p 9.8
  #  Further functions - -0.17 meV and below
  #     hydro 5 d 3.2
  ################################################################################
  #
  #  FHI-aims code project
  # Volker Blum, Fritz Haber Institute Berlin, 2009
  #
  #  Suggested "tight" defaults for Se atom (to be pasted into control.in file)
  #
  ################################################################################
    species        Se
  #     global species definitions
      nucleus             34
      mass                78.96
  #
      l_hartree           6
  #
      cut_pot             6.0          2.0  1.0
      basis_dep_cutoff    0
  #
      radial_base         55 7.0
      radial_multiplier   2
      angular_grids       specified
        division   0.0830  110
        division   0.1357  194
        division   0.7377  302
        division   0.8610  434
        division   0.9640  590
        division   1.0773  770
        division   2.5539  974
        outer_grid  974
  ################################################################################
  #
  #  Definition of "minimal" basis
  #
  ################################################################################
  #     valence basis states
      valence      4  s   2.
      valence      4  p   4.
      valence      3  d  10.
  #     ion occupancy
      ion_occ      4  s   1.
      ion_occ      4  p   3.
      ion_occ      3  d  10.
  ################################################################################
  #
  #  Suggested additional basis functions. For production calculations,
  #  uncomment them one after another (the most important basis functions are
  #  listed first).
  #
  #  Constructed for dimers: 1.85 A, 2.15 A, 2.50 A, 3.00 A, 4.00 A
  #
  ################################################################################
  #  "First tier" - improvements: -336.21 meV to -36.85 meV
       hydro 3 d 4.3
       hydro 2 p 1.6
       hydro 4 f 7.2
       ionic 4 s auto
  #  "Second tier" - improvements: -14.39 meV to -1.49 meV
  #     hydro 5 g 10.4
  #     hydro 4 p 4.5
  #     hydro 4 d 6.2
  #     hydro 4 f 11.2
  #     hydro 1 s 0.65
  #     hydro 6 h 15.2
  #  "Third tier" - improvements: -0.46 meV and below
  #     hydro 5 g 14.4
  #     ionic 4 d auto
  #     hydro 4 f 22.4
  #     hydro 5 f 7.4
  #     hydro 5 p 8
  #     hydro 5 s 9.4
  #  "Fourth tier" - improvements: -0.12 meV and below
  #     hydro 5 d 11.6
  #     hydro 6 h 18
  #     hydro 4 p 4
  #     hydro 5 f 16
  #     hydro 4 s 3.9
  
  
  
  -----------------------------------------------------------------------
  Completed first pass over input file control.in .
  -----------------------------------------------------------------------
  
  
  -----------------------------------------------------------------------
  Parsing geometry.in (first pass over file, find array dimensions only).
  The contents of geometry.in will be repeated verbatim below
  unless switched off by setting 'verbatim_writeout .false.' .
  in the first line of geometry.in .
  -----------------------------------------------------------------------
  
  #=======================================================
  # FHI-aims file: ./geometry.in
  # Created using the Atomic Simulation Environment (ASE)
  # Wed Oct 23 16:37:33 2019
  #=======================================================
  lattice_vector 3.2900000000000000 0.0000000000000000 0.0000000000000000
  lattice_vector -1.6450000000000000 2.8492235799999999 0.0000000000000000
  lattice_vector 0.0000000000000000 0.0000000000000000 100.0000000000000000
  atom -0.0000000000000000 1.8994823900000000 3.2275000000000000 Mo
  atom 1.6450000000000000 0.9497411900000000 4.8864349999999996 Se
  atom 1.6450000000000000 0.9497411900000000 1.5685650000000000 Se
  
  -----------------------------------------------------------------------
  Completed first pass over input file geometry.in .
  -----------------------------------------------------------------------
  

  Basic array size parameters:
  | Number of species                 :        2
  | Number of atoms                   :        3
  | Number of lattice vectors         :        3
  | Max. basis fn. angular momentum   :        4
  | Max. atomic/ionic basis occupied n:        5
  | Max. number of basis fn. types    :        3
  | Max. radial fns per species/type  :       10
  | Max. logarithmic grid size        :     1436
  | Max. radial integration grid size :      119
  | Max. angular integration grid size:     1202
  | Max. angular grid division number :        8
  | Radial grid for Hartree potential :     1436
  | Number of spin channels           :        1

------------------------------------------------------------
          Reading file control.in.
------------------------------------------------------------
  Spin treatment: No spin polarisation.
  Found k-point grid:        12        12         1
  Convergence accuracy of total energy:  0.1000E-05
  Maximum number of s.-c. iterations  :   500

  Plot band    1
  | begin  0.000000  0.000000  0.000000
  | end    0.500000  0.000000  0.000000
  | number of points:   31

  Plot band    2
  | begin  0.500000  0.000000  0.000000
  | end    0.333333  0.333333  0.000000
  | number of points:   31

  Plot band    3
  | begin  0.333333  0.333333  0.000000
  | end    0.000000  0.000000  0.000000
  | number of points:   31
  XC: Using PBE gradient-corrected functionals.
  Periodic GW calculations will be started if finite k point sampling is also set. Please be warned that periodic GW is only at the experimental stage and is still under testing. Be cautious about your results.
  Using two-pole fitting for analytical continuation.
 The 'V' version of RI (resolution of identity) technique is used.
  Convergence accuracy of sum of eigenvalues:  0.1000E-02
  Scalar relativistic treatment of kinetic energy: on-site free-atom approximation to ZORA.
 
  Reading configuration options for species Mo                  .
  | Found nuclear charge :  42.0000
  | Found atomic mass :    95.9400000000000      amu
  | Found l_max for Hartree potential  :   6
  | Found cutoff potl. onset [A], width [A], scale factor :    6.00000    2.00000    1.00000
  | Threshold for basis-dependent cutoff potential is   0.000000E+00
  | Found data for basic radial integration grid :    59 points, outermost radius =    7.000 A
  | Found multiplier for basic radial grid :   2
  | Found angular grid specification: user-specified.
  | Specified grid contains    10 separate shells.
  | Check grid settings after all constraints further below.
  | Found free-atom valence shell :  5 s   1.000
  | Found free-atom valence shell :  4 p   6.000
  | Found free-atom valence shell :  4 d   5.000
  | Found free-ion valence shell :  5 s   0.000
  | Found free-ion valence shell :  4 p   6.000
  | Found free-ion valence shell :  4 d   4.000
  | Found hydrogenic basis function :  4 f   8.400
  | Found hydrogenic basis function :  3 d   2.800
  | Found ionic basis function :  5 p , default cutoff radius.
  | Found hydrogenic basis function :  5 g  12.000
  | Found ionic basis function :  5 s , default cutoff radius.
  Species Mo                  : Missing cutoff potential type.
  Defaulting to exp(1/x)/(1-x)^2 type cutoff potential.
  Species Mo: No 'logarithmic' tag. Using default grid for free atom:
  | Default logarithmic grid data [bohr] : 0.1000E-03 0.1000E+03 0.1012E+01
  | Will include ionic basis functions of  2.0-fold positive Mo                   ion.
  Species Mo: On-site basis accuracy parameter (for Gram-Schmidt orthonormalisation) not specified.
  Using default value basis_acc =  0.1000000E-03.
  Species Mo                  : Using default innermost maximum threshold i_radial=  2 for radial functions.
  Species Mo                  : Default cutoff onset for free atom density etc. is infinite
  since the product basis is used (hybrid functionals, Hartree-Fock, GW etc.).
  Species Mo                  : Basic radial grid will be enhanced according to radial_multiplier =   2, to contain   119 grid points.
 
  Reading configuration options for species Se                  .
  | Found nuclear charge :  34.0000
  | Found atomic mass :    78.9600000000000      amu
  | Found l_max for Hartree potential  :   6
  | Found cutoff potl. onset [A], width [A], scale factor :    6.00000    2.00000    1.00000
  | Threshold for basis-dependent cutoff potential is   0.000000E+00
  | Found data for basic radial integration grid :    55 points, outermost radius =    7.000 A
  | Found multiplier for basic radial grid :   2
  | Found angular grid specification: user-specified.
  | Specified grid contains     8 separate shells.
  | Check grid settings after all constraints further below.
  | Found free-atom valence shell :  4 s   2.000
  | Found free-atom valence shell :  4 p   4.000
  | Found free-atom valence shell :  3 d  10.000
  | Found free-ion valence shell :  4 s   1.000
  | Found free-ion valence shell :  4 p   3.000
  | Found free-ion valence shell :  3 d  10.000
  | Found hydrogenic basis function :  3 d   4.300
  | Found hydrogenic basis function :  2 p   1.600
  | Found hydrogenic basis function :  4 f   7.200
  | Found ionic basis function :  4 s , default cutoff radius.
  Species Se                  : Missing cutoff potential type.
  Defaulting to exp(1/x)/(1-x)^2 type cutoff potential.
  Species Se: No 'logarithmic' tag. Using default grid for free atom:
  | Default logarithmic grid data [bohr] : 0.1000E-03 0.1000E+03 0.1012E+01
  | Will include ionic basis functions of  2.0-fold positive Se                   ion.
  Species Se: On-site basis accuracy parameter (for Gram-Schmidt orthonormalisation) not specified.
  Using default value basis_acc =  0.1000000E-03.
  Species Se                  : Using default innermost maximum threshold i_radial=  2 for radial functions.
  Species Se                  : Default cutoff onset for free atom density etc. is infinite
  since the product basis is used (hybrid functionals, Hartree-Fock, GW etc.).
  Species Se                  : Basic radial grid will be enhanced according to radial_multiplier =   2, to contain   111 grid points.
 
  Finished reading input file 'control.in'. Consistency checks are next.
 
  MPI_IN_PLACE appears to work with this MPI implementation.
  | Keeping use_mpi_in_place .true. (see manual).
  Species Mo: Using default value for prodbas_acc =   1.000000E-04.
  Species Mo: Using default value max_l_prodbas =    20.
  Species Se: Using default value for prodbas_acc =   1.000000E-04.
  Species Se: Using default value max_l_prodbas =    20.
 * Species Mo: Specified min. number of angular integration points is    50
 * The angular momenta for this species require   434 for RI_type 'V'. Increasing angular_min to   434.
 * Species Mo: Grid shell     1 contains only    50 angular integration points.
 * Increasing to angular_min =   434 integration points.
 * This change is related to the three-center integrals used in RI_method 'V'.
 * Species Mo: Grid shell     2 contains only   110 angular integration points.
 * Increasing to angular_min =   434 integration points.
 * This change is related to the three-center integrals used in RI_method 'V'.
 * Species Mo: Grid shell     3 contains only   194 angular integration points.
 * Increasing to angular_min =   434 integration points.
 * This change is related to the three-center integrals used in RI_method 'V'.
 * Species Mo: Grid shell     4 contains only   302 angular integration points.
 * Increasing to angular_min =   434 integration points.
 * This change is related to the three-center integrals used in RI_method 'V'.
 * Species Se: Specified min. number of angular integration points is   110
 * The angular momenta for this species require   434 for RI_type 'V'. Increasing angular_min to   434.
 * Species Se: Grid shell     1 contains only   110 angular integration points.
 * Increasing to angular_min =   434 integration points.
 * This change is related to the three-center integrals used in RI_method 'V'.
 * Species Se: Grid shell     2 contains only   194 angular integration points.
 * Increasing to angular_min =   434 integration points.
 * This change is related to the three-center integrals used in RI_method 'V'.
 * Species Se: Grid shell     3 contains only   302 angular integration points.
 * Increasing to angular_min =   434 integration points.
 * This change is related to the three-center integrals used in RI_method 'V'.
  Target number of points in a grid batch is not set. Defaulting to  100
  Method for grid partitioning is not set. Defaulting to parallel hash+maxmin partitioning.
  Batch size limit is not set. Defaulting to    200
  By default, will store active basis functions for each batch.
  If in need of memory, prune_basis_once .false. can be used to disable this option.
  communication_type for Hartree potential was not specified.
  Defaulting to calc_hartree .
  Defaulting to Pulay charge density mixer.
  Pulay mixer: Number of relevant iterations not set.
  Defaulting to    8 iterations.
  Pulay mixer: Number of initial linear mixing iterations not set.
  Defaulting to    0 iterations.
  Work space size for distributed Hartree potential not set.
  Defaulting to   0.200000E+03 MB.
  Mixing parameter for charge density mixing has not been set.
  Using default: charge_mix_param =     0.0500.
  The mixing parameter will be adjusted in iteration number     2 of the first full s.c.f. cycle only.
  Algorithm-dependent basis array size parameters:
  | n_max_pulay                         :        8
 * Notice: The s.c.f. convergence criterion sc_accuracy_rho was not provided.
 * We used to stop in this case, and ask the user to provide reasonable
 * scf convergence criteria. However, this led some users to employ criteria
 * that led to extremely long run times, e.g., for simple relaxation.
 * We now preset a default value for sc_accuracy_rho if it is not set.
 * You may still wish to check if this setting is too tight or too loose for your needs.
 * Based on n_atoms, FHI-aims chose sc_accuracy_rho =  0.100000E-05 .
  Presetting      1001 iterations before the initial mixing cycle
  is restarted anyway using the sc_init_iter criterion / keyword.
  Presetting a factor      1.000 between actual scf density residual
  and density convergence criterion sc_accuracy_rho below which sc_init_iter
  takes no effect.
  Calculation of forces was not defined in control.in. No forces will be calculated.
  Geometry relaxation not requested: no relaxation will be performed.
  No accuracy limit for integral partition fn. given. Defaulting to  0.1000E-14.
  No threshold value for u(r) in integrations given. Defaulting to  0.1000E-05.
  No occupation type (smearing scheme) given. Defaulting to Gaussian broadening, width =  0.1000E-01 eV.
  The width will be adjusted in iteration number     2 of the first full s.c.f. cycle only.
  S.C.F. convergence parameters will be adjusted in iteration number     2 of the first full s.c.f. cycle only.
  No accuracy for occupation numbers given. Defaulting to  0.1000E-12.
  No threshold value for occupation numbers given. Defaulting to  0.0000E+00.
  No accuracy for fermi level given. Defaulting to  0.1000E-19.
  Maximum # of iterations to find E_F not set. Defaulting to  200.
  Preferred method for the eigenvalue solver ('KS_method') not specified in 'control.in'.
  Defaulting to serial version, 'lapack_fast', since more k-points than CPUs available.
  Will not use alltoall communication since running on < 1024 CPUs.
  Threshold for basis singularities not set.
  Default threshold for basis singularities:  0.1000E-04
  partition_type (choice of integration weights) for integrals was not specified.
  | Using a version of the partition function of Stratmann and coworkers ('stratmann_smoother').
  | At each grid point, the set of atoms used to build the partition table is smoothly restricted to
  | only those atoms whose free-atom density would be non-zero at that grid point.
  Partitioning for Hartree potential was not defined. Using partition_type for integrals.
  | Adjusted default value of keyword multip_moments_threshold to:       0.10000000E-11
  | This value may affect high angular momentum components of the Hartree potential in periodic systems.
  Angular momentum expansion for Kerker preconditioner not set explicitly.
  | Using default value of   0
  No explicit requirement for turning off preconditioner.
  | By default, it will be turned off when the charge convergence reaches
  | sc_accuracy_rho  =   0.100000E-05
  | sc_accuracy_eev  =   0.100000E-02
  | sc_accuracy_etot =   0.100000E-05
  No special mixing parameter while Kerker preconditioner is on.
  Using default: charge_mix_param =     0.0500.
  Threshold for auxiliary basis singularities not set.
  Default threshold for auxiliary basis singularities:  0.1000E-04
  * Periodic GW calculations will start ......
  No q(lm)/r^(l+1) cutoff set for long-range Hartree potential.
  | Using default value of  0.100000E-09 .
  | Verify using the multipole_threshold keyword.
  Defaulting to new monopole extrapolation.
  Density update method: automatic selection selected.
  Using density matrix based charge density update.
  Using density matrix based charge density update.
  Using packed matrix style: index .
 * WARNING: This is an experimental version of the periodic GW implemenation.
 * We are still actively working on it to improve the efficiency and reliability. 
 * Do not rely on any results you obtained from periodic GW calculation.
  Defaulting to use full k-point grid (no symmetry reduction).
  Default to 1D ("use_logsbt") integrations for auxiliary 2-center integrals.
  Default onset of logarithmic r-grid for SBT is-38.000000000000
  Default onset of logarithmic k-grid for SBT is-25.000000000000
  Default range of logarithmic r- and k-grid for SBT is 45.000000000000
  Default number of logarithmic r- and k-grid for SBT is  4096
------------------------------------------------------------


------------------------------------------------------------
          Reading geometry description geometry.in.
------------------------------------------------------------
  Input structure read successfully.
  The structure contains        3 atoms,  and a total of        110.000 electrons.

  Input geometry:
  | Unit cell:
  |        3.29000000        0.00000000        0.00000000
  |       -1.64500000        2.84922358        0.00000000
  |        0.00000000        0.00000000      100.00000000
  | Atomic structure:
  |       Atom                x [A]            y [A]            z [A]
  |    1: Species Mo            0.00000000        1.89948239        3.22750000
  |    2: Species Se            1.64500000        0.94974119        4.88643500
  |    3: Species Se            1.64500000        0.94974119        1.56856500

  Lattice parameters for 3D lattice (in Angstroms) :     3.290000    3.290000  100.000000
  Angle(s) between unit vectors (in degrees)      :    90.000000   90.000000  120.000000

  |

  | The smallest distance between any two atoms is         2.52192360 AA.
  |
  | The first atom of this pair is atom number                      3 .
  | The second atom of this pair is atom number                     1 .
  | Wigner-Seitz cell of the first atom image           1     0     0 .
  | (The Wigner-Seitz cell of the second atom is 0 0 0  by definition.)

  Quantities derived from the lattice vectors:
  | Reciprocal lattice vector 1:  1.909783  1.102614  0.000000
  | Reciprocal lattice vector 2: -0.000000  2.205227  0.000000
  | Reciprocal lattice vector 3:  0.000000  0.000000  0.062832
  | Unit cell volume                               :   0.937395E+03  A^3

  Range separation radius for Ewald summation (hartree_convergence_parameter):      5.00000000 bohr.

  Fractional coordinates:
                         L1                L2                L3
       atom_frac         0.33333333        0.66666667        0.03227500  Mo
       atom_frac         0.66666667        0.33333333        0.04886435  Se
       atom_frac         0.66666667        0.33333333        0.01568565  Se

  Number of empty states per atom not set in control.in .
  | Since you are using a method that relies on the unoccupied spectrum
  | (MP2,GW,RPA et al.), will use the full Hamiltonian size (see below)
  | as the max. possible number of states (occupied plus empty).

  Structure-dependent array size parameters: 
  | Maximum number of distinct radial functions  :       27
  | Maximum number of basis functions            :      117
  | Number of Kohn-Sham states (occupied + empty):      117
------------------------------------------------------------
  Setting Coulomb cut-width to  1.091868692359 * rcut.
  Setting Coulomb cutting radius rcut to 19.740000000000 A.

------------------------------------------------------------
          Preparing all fixed parts of the calculation.
------------------------------------------------------------
  Determining machine precision:
    2.225073858507201E-308
  Setting up grids for atomic and cluster calculations.

  Creating wave function, potential, and density for free atoms.

  Species: Mo

  List of occupied orbitals and eigenvalues:
    n    l              occ      energy [Ha]    energy [eV]
    1    0           2.0000      -745.350402    -20282.0164
    2    0           2.0000      -103.293836     -2810.7683
    3    0           2.0000       -17.522264      -476.8051
    4    0           2.0000        -2.364085       -64.3300
    5    0           1.0000        -0.150094        -4.0843
    2    1           6.0000       -92.314218     -2511.9977
    3    1           6.0000       -13.941580      -379.3697
    4    1           6.0000        -1.413633       -38.4669
    3    2          10.0000        -8.124582      -221.0811
    4    2           5.0000        -0.138004        -3.7553


  Species: Se

  List of occupied orbitals and eigenvalues:
    n    l              occ      energy [Ha]    energy [eV]
    1    0           2.0000      -466.338851    -12689.7258
    2    0           2.0000       -59.203610     -1611.0122
    3    0           2.0000        -7.848116      -213.5581
    4    0           2.0000        -0.635202       -17.2847
    2    1           6.0000       -52.062121     -1416.6824
    3    1           6.0000        -5.621941      -152.9808
    4    1           4.0000        -0.239256        -6.5105
    3    2          10.0000        -1.952945       -53.1423

  Creating fixed part of basis set: Ionic, confined, hydrogenic.
 
  Mo                   ion:

  List of free ionic orbitals and eigenvalues:
    n    l      energy [Ha]    energy [eV]
    1    0      -746.048685    -20301.0176
    2    0      -103.980912     -2829.4646
    3    0       -18.206601      -495.4268
    4    0        -3.040545       -82.7374
    2    1       -93.001013     -2530.6863
    3    1       -14.625827      -397.9890
    4    1        -2.084855       -56.7318
    3    2        -8.808854      -239.7011
    4    2        -0.765435       -20.8285


  List of ionic basis orbitals and eigenvalues:
    n    l      energy [Ha]    energy [eV]    outer radius [A]
    5    1        -0.466144       -12.6844       7.316906
    5    0        -0.650385       -17.6979       7.140178

 
  Mo                   hydrogenic:
 
  List of hydrogenic basis orbitals: 
    n    l      effective z      eigenvalue [eV]  inner max. [A]     outer max. [A]     outer radius [A]   
    4    3         8.400000       -60.0011           1.009788           1.009788           6.241764
    3    2         2.800000       -11.8517           1.708156           1.708156           7.316906
    5    4        12.000000       -78.3688           1.100005           1.100005           5.943885
 
 
  Se                   ion:

  List of free ionic orbitals and eigenvalues:
    n    l      energy [Ha]    energy [eV]
    1    0      -467.261007    -12714.8189
    2    0       -60.104893     -1635.5374
    3    0        -8.743714      -237.9286
    4    0        -1.414053       -38.4783
    2    1       -52.964156     -1441.2280
    3    1        -6.516916      -177.3343
    4    1        -0.961869       -26.1738
    3    2        -2.844511       -77.4031


  List of ionic basis orbitals and eigenvalues:
    n    l      energy [Ha]    energy [eV]    outer radius [A]
    4    0        -1.414053       -38.4783       6.037996

 
  Se                   hydrogenic:
 
  List of hydrogenic basis orbitals: 
    n    l      effective z      eigenvalue [eV]  inner max. [A]     outer max. [A]     outer radius [A]   
    3    2         4.300000       -27.9521           1.103845           1.103845           6.992038
    2    1         1.600000        -8.7074           1.326010           1.326010           7.342446
    4    3         7.200000       -44.0824           1.173422           1.173422           6.823156
 

  Adding cutoff potential to free-atom effective potential.
  Creating atomic-like basis functions for current effective potential.

  Species Mo                  :

  List of atomic basis orbitals and eigenvalues:
    n    l      energy [Ha]    energy [eV]    outer radius [A]
    1    0      -745.350402    -20282.0164       0.247552
    2    0      -103.293836     -2810.7683       0.682864
    3    0       -17.522264      -476.8051       1.626637
    4    0        -2.364085       -64.3300       4.220963
    5    0        -0.150062        -4.0834       7.316906
    2    1       -92.314218     -2511.9977       0.699766
    3    1       -13.941580      -379.3697       1.793761
    4    1        -1.413633       -38.4669       5.259905
    3    2        -8.124582      -221.0811       2.181285
    4    2        -0.138002        -3.7552       7.316906


  Species Se                  :

  List of atomic basis orbitals and eigenvalues:
    n    l      energy [Ha]    energy [eV]    outer radius [A]
    1    0      -466.338851    -12689.7258       0.309561
    2    0       -59.203610     -1611.0122       0.885812
    3    0        -7.848116      -213.5581       2.355489
    4    0        -0.635202       -17.2847       6.823156
    2    1       -52.062121     -1416.6824       0.907737
    3    1        -5.621941      -152.9808       2.694529
    4    1        -0.239256        -6.5105       7.253231
    3    2        -1.952945       -53.1423       4.083166

  Assembling full basis from fixed parts.
  | Species Mo :   atomic orbital   1 s accepted.
  | Species Mo :   atomic orbital   2 s accepted.
  | Species Mo :   atomic orbital   3 s accepted.
  | Species Mo :   atomic orbital   4 s accepted.
  | Species Mo :   atomic orbital   5 s accepted.
  | Species Mo :    ionic orbital   5 s accepted.
  | Species Mo :   atomic orbital   2 p accepted.
  | Species Mo :   atomic orbital   3 p accepted.
  | Species Mo :   atomic orbital   4 p accepted.
  | Species Mo :    ionic orbital   5 p accepted.
  | Species Mo :   atomic orbital   3 d accepted.
  | Species Mo :   atomic orbital   4 d accepted.
  | Species Mo :    hydro orbital   3 d accepted.
  | Species Mo :    hydro orbital   4 f accepted.
  | Species Mo :    hydro orbital   5 g accepted.
  | Species Se :   atomic orbital   1 s accepted.
  | Species Se :   atomic orbital   2 s accepted.
  | Species Se :   atomic orbital   3 s accepted.
  | Species Se :   atomic orbital   4 s accepted.
  | Species Se :    ionic orbital   4 s accepted.
  | Species Se :   atomic orbital   2 p accepted.
  | Species Se :   atomic orbital   3 p accepted.
  | Species Se :   atomic orbital   4 p accepted.
  | Species Se :    hydro orbital   2 p accepted.
  | Species Se :   atomic orbital   3 d accepted.
  | Species Se :    hydro orbital   3 d accepted.
  | Species Se :    hydro orbital   4 f accepted.
 
  Basis size parameters after reduction:
  | Total number of radial functions:       27
  | Total number of basis functions :      117
 
  Per-task memory consumption for arrays in subroutine allocate_ext:
  |           9.929984MB.
  Testing on-site integration grid accuracy.
  |  Species  Function  <phi|h_atom|phi> (log., in eV)  <phi|h_atom|phi> (rad., in eV)
           1        1             -20282.0163702000             -20282.0148391946
           1        2              -2810.7682772720              -2810.7682512348
           1        3               -476.8050506938               -476.8050479775
           1        4                -64.3300373627                -64.3300366415
           1        5                 -4.0836088408                 -4.0834421444
           1        6                  3.7315043928                  3.7333151502
           1        7              -2511.9976897542              -2511.9976877237
           1        8               -379.3696920363               -379.3696906350
           1        9                -38.4669132130                -38.4669127128
           1       10                  0.1065247507                  0.1065378487
           1       11               -221.0811166353               -221.0811162336
           1       12                 -3.7552472364                 -3.7552354905
           1       13                  6.6325681613                  6.6326857509
           1       14                 23.2647782863                 23.2647782933
           1       15                 50.1161559512                 50.1161559424
           2       16             -12689.7257802544             -12689.7250857903
           2       17              -1611.0122027672              -1611.0121921561
           2       18               -213.5581093579               -213.5581080977
           2       19                -17.2847227329                -17.2847225322
           2       20                  7.0148775617                  7.0148776961
           2       21              -1416.6824008499              -1416.6824000475
           2       22               -152.9807911549               -152.9807904665
           2       23                 -6.5104837321                 -6.5104812629
           2       24                  4.7398955750                  4.7401992807
           2       25                -53.1423406463                -53.1423404534
           2       26                  7.5980342517                  7.5980342973
           2       27                 23.0867927724                 23.0867927781

  Preparing densities etc. for the partition functions (integrals / Hartree potential).

  Preparations completed.
  max(cpu_time)          :      0.492 s.
  Wall clock time (cpu1) :      0.489 s.
------------------------------------------------------------

------------------------------------------------------------
          Begin self-consistency loop: Initialization.

          Date     :  20191025, Time     :  103729.664
------------------------------------------------------------

  Initializing index lists of integration centers etc. from given atomic structure:
  Mapping all atomic coordinates to central unit cell.

  Initializing the k-points
  | Number of k-points                             :       144
  | Consuming        324 KiB for k_phase_exx.
  The eigenvectors in the calculations are COMPLEX.
  | K-points in task   0:         1
  | K-points in task   1:         2
  | K-points in task   2:         2
  | K-points in task   3:         2
  | K-points in task   4:         2
  | K-points in task   5:         2
  | K-points in task   6:         2
  | K-points in task   7:         2
  | K-points in task   8:         2
  | K-points in task   9:         2
  | K-points in task  10:         2
  | K-points in task  11:         2
  | K-points in task  12:         2
  | K-points in task  13:         2
  | K-points in task  14:         2
  | K-points in task  15:         2
  | K-points in task  16:         2
  | K-points in task  17:         2
  | K-points in task  18:         2
  | K-points in task  19:         2
  | K-points in task  20:         2
  | K-points in task  21:         2
  | K-points in task  22:         2
  | K-points in task  23:         2
  | K-points in task  24:         2
  | K-points in task  25:         2
  | K-points in task  26:         2
  | K-points in task  27:         2
  | K-points in task  28:         2
  | K-points in task  29:         2
  | K-points in task  30:         2
  | K-points in task  31:         2
  | K-points in task  32:         2
  | K-points in task  33:         2
  | K-points in task  34:         2
  | K-points in task  35:         2
  | K-points in task  36:         2
  | K-points in task  37:         2
  | K-points in task  38:         2
  | K-points in task  39:         2
  | K-points in task  40:         2
  | K-points in task  41:         2
  | K-points in task  42:         2
  | K-points in task  43:         2
  | K-points in task  44:         2
  | K-points in task  45:         2
  | K-points in task  46:         2
  | K-points in task  47:         2
  | K-points in task  48:         2
  | K-points in task  49:         2
  | K-points in task  50:         2
  | K-points in task  51:         2
  | K-points in task  52:         2
  | K-points in task  53:         2
  | K-points in task  54:         2
  | K-points in task  55:         2
  | K-points in task  56:         2
  | K-points in task  57:         2
  | K-points in task  58:         2
  | K-points in task  59:         2
  | K-points in task  60:         2
  | K-points in task  61:         2
  | K-points in task  62:         2
  | K-points in task  63:         2
  | K-points in task  64:         2
  | K-points in task  65:         1
  | K-points in task  66:         1
  | K-points in task  67:         1
  | K-points in task  68:         1
  | K-points in task  69:         1
  | K-points in task  70:         1
  | K-points in task  71:         1
  | K-points in task  72:         1
  | K-points in task  73:         1
  | K-points in task  74:         1
  | K-points in task  75:         1
  | K-points in task  76:         1
  | K-points in task  77:         1
  | K-points in task  78:         1
  | K-points in task  79:         1
  | Number of basis functions in the Hamiltonian integrals :      2349
  | Number of basis functions in a single unit cell        :       117
  | Number of centers in hartree potential         :      1360
  | Number of centers in hartree multipole         :      1360
  | Number of centers in electron density summation:       276
  | Number of centers in basis integrals           :      1274
  | Number of centers in integrals                 :       849
  | Number of centers in hamiltonian               :       276
  | Consuming        225 KiB for k_phase.
  | Number of super-cells (origin) [n_cells]                     :        3267
  | Number of super-cells (after PM_index) [n_cells]             :         100
  | Number of super-cells in hamiltonian [n_cells_in_hamiltonian]:         100
  | Size of matrix packed + index [n_hamiltonian_matrix_size] :      278651
  Partitioning the integration grid into batches with parallel hashing+maxmin method.
  | Number of batches:     2845
  | Maximal batch size:     171
  | Minimal batch size:       1
  | Average batch size:      73.813
  | Standard deviation of batch sizes:      21.978

  Integration load balanced across    80 MPI tasks.
  Work distribution over tasks is as follows:
  Task     0 has       2604 integration points.
  Task     1 has       2667 integration points.
  Task     2 has       2724 integration points.
  Task     3 has       2587 integration points.
  Task     4 has       2686 integration points.
  Task     5 has       2574 integration points.
  Task     6 has       2574 integration points.
  Task     7 has       2717 integration points.
  Task     8 has       2661 integration points.
  Task     9 has       2675 integration points.
  Task    10 has       2719 integration points.
  Task    11 has       2606 integration points.
  Task    12 has       2588 integration points.
  Task    13 has       2573 integration points.
  Task    14 has       2719 integration points.
  Task    15 has       2697 integration points.
  Task    16 has       2568 integration points.
  Task    17 has       2570 integration points.
  Task    18 has       2580 integration points.
  Task    19 has       2687 integration points.
  Task    20 has       2581 integration points.
  Task    21 has       2590 integration points.
  Task    22 has       2598 integration points.
  Task    23 has       2693 integration points.
  Task    24 has       2567 integration points.
  Task    25 has       2685 integration points.
  Task    26 has       2569 integration points.
  Task    27 has       2585 integration points.
  Task    28 has       2689 integration points.
  Task    29 has       2593 integration points.
  Task    30 has       2718 integration points.
  Task    31 has       2577 integration points.
  Task    32 has       2683 integration points.
  Task    33 has       2584 integration points.
  Task    34 has       2567 integration points.
  Task    35 has       2568 integration points.
  Task    36 has       2591 integration points.
  Task    37 has       2723 integration points.
  Task    38 has       2569 integration points.
  Task    39 has       2720 integration points.
  Task    40 has       2683 integration points.
  Task    41 has       2582 integration points.
  Task    42 has       2574 integration points.
  Task    43 has       2702 integration points.
  Task    44 has       2568 integration points.
  Task    45 has       2584 integration points.
  Task    46 has       2589 integration points.
  Task    47 has       2572 integration points.
  Task    48 has       2585 integration points.
  Task    49 has       2580 integration points.
  Task    50 has       2568 integration points.
  Task    51 has       2599 integration points.
  Task    52 has       2638 integration points.
  Task    53 has       2593 integration points.
  Task    54 has       2730 integration points.
  Task    55 has       2569 integration points.
  Task    56 has       2587 integration points.
  Task    57 has       2568 integration points.
  Task    58 has       2720 integration points.
  Task    59 has       2715 integration points.
  Task    60 has       2571 integration points.
  Task    61 has       2567 integration points.
  Task    62 has       2715 integration points.
  Task    63 has       2711 integration points.
  Task    64 has       2618 integration points.
  Task    65 has       2570 integration points.
  Task    66 has       2720 integration points.
  Task    67 has       2591 integration points.
  Task    68 has       2692 integration points.
  Task    69 has       2664 integration points.
  Task    70 has       2568 integration points.
  Task    71 has       2632 integration points.
  Task    72 has       2664 integration points.
  Task    73 has       2715 integration points.
  Task    74 has       2585 integration points.
  Task    75 has       2568 integration points.
  Task    76 has       2570 integration points.
  Task    77 has       2590 integration points.
  Task    78 has       2576 integration points.
  Task    79 has       2579 integration points.
  Initializing partition tables, free-atom densities, potentials, etc. across the integration grid (initialize_grid_storage).
  | Species        1: outer_partition_radius set to             34.987314708412853 AA .
  | Species        2: outer_partition_radius set to             22.063409016643753 AA .
  | Original list of interatomic distances with        1274 x       1274 entries is created.
  | Net number of integration points:   209998
  | of which are non-zero points    :   177574
  | Numerical average free-atom electrostatic potential    :     -1.25856719 eV
  Renormalizing the initial density to the exact electron count on the 3D integration grid.
  | Initial density: Formal number of electrons (from input files) :     110.0000000000
  | Integrated number of electrons on 3D grid     :     110.0000021800
  | Charge integration error                      :       0.0000021800
  | Normalization factor for density and gradient :       0.9999999802
  Obtaining max. number of non-zero basis functions in each batch (get_n_compute_maxes).
  | Maximal number of non-zero basis functions:     1404 in task     0
  | Maximal number of non-zero basis functions:     1398 in task     1
  | Maximal number of non-zero basis functions:     1391 in task     2
  | Maximal number of non-zero basis functions:     1382 in task     3
  | Maximal number of non-zero basis functions:     1386 in task     4
  | Maximal number of non-zero basis functions:     1399 in task     5
  | Maximal number of non-zero basis functions:     1396 in task     6
  | Maximal number of non-zero basis functions:     1399 in task     7
  | Maximal number of non-zero basis functions:     1395 in task     8
  | Maximal number of non-zero basis functions:     1405 in task     9
  | Maximal number of non-zero basis functions:     1383 in task    10
  | Maximal number of non-zero basis functions:     1394 in task    11
  | Maximal number of non-zero basis functions:     1414 in task    12
  | Maximal number of non-zero basis functions:     1389 in task    13
  | Maximal number of non-zero basis functions:     1402 in task    14
  | Maximal number of non-zero basis functions:     1401 in task    15
  | Maximal number of non-zero basis functions:     1392 in task    16
  | Maximal number of non-zero basis functions:     1395 in task    17
  | Maximal number of non-zero basis functions:     1384 in task    18
  | Maximal number of non-zero basis functions:     1414 in task    19
  | Maximal number of non-zero basis functions:     1401 in task    20
  | Maximal number of non-zero basis functions:     1399 in task    21
  | Maximal number of non-zero basis functions:     1399 in task    22
  | Maximal number of non-zero basis functions:     1391 in task    23
  | Maximal number of non-zero basis functions:     1406 in task    24
  | Maximal number of non-zero basis functions:     1390 in task    25
  | Maximal number of non-zero basis functions:     1404 in task    26
  | Maximal number of non-zero basis functions:     1382 in task    27
  | Maximal number of non-zero basis functions:     1395 in task    28
  | Maximal number of non-zero basis functions:     1402 in task    29
  | Maximal number of non-zero basis functions:     1403 in task    30
  | Maximal number of non-zero basis functions:     1407 in task    31
  | Maximal number of non-zero basis functions:     1391 in task    32
  | Maximal number of non-zero basis functions:     1407 in task    33
  | Maximal number of non-zero basis functions:     1386 in task    34
  | Maximal number of non-zero basis functions:     1402 in task    35
  | Maximal number of non-zero basis functions:     1404 in task    36
  | Maximal number of non-zero basis functions:     1382 in task    37
  | Maximal number of non-zero basis functions:     1393 in task    38
  | Maximal number of non-zero basis functions:     1388 in task    39
  | Maximal number of non-zero basis functions:     1398 in task    40
  | Maximal number of non-zero basis functions:     1422 in task    41
  | Maximal number of non-zero basis functions:     1395 in task    42
  | Maximal number of non-zero basis functions:     1402 in task    43
  | Maximal number of non-zero basis functions:     1406 in task    44
  | Maximal number of non-zero basis functions:     1402 in task    45
  | Maximal number of non-zero basis functions:     1402 in task    46
  | Maximal number of non-zero basis functions:     1398 in task    47
  | Maximal number of non-zero basis functions:     1409 in task    48
  | Maximal number of non-zero basis functions:     1381 in task    49
  | Maximal number of non-zero basis functions:     1389 in task    50
  | Maximal number of non-zero basis functions:     1394 in task    51
  | Maximal number of non-zero basis functions:     1388 in task    52
  | Maximal number of non-zero basis functions:     1375 in task    53
  | Maximal number of non-zero basis functions:     1381 in task    54
  | Maximal number of non-zero basis functions:     1392 in task    55
  | Maximal number of non-zero basis functions:     1408 in task    56
  | Maximal number of non-zero basis functions:     1387 in task    57
  | Maximal number of non-zero basis functions:     1398 in task    58
  | Maximal number of non-zero basis functions:     1402 in task    59
  | Maximal number of non-zero basis functions:     1405 in task    60
  | Maximal number of non-zero basis functions:     1404 in task    61
  | Maximal number of non-zero basis functions:     1395 in task    62
  | Maximal number of non-zero basis functions:     1398 in task    63
  | Maximal number of non-zero basis functions:     1405 in task    64
  | Maximal number of non-zero basis functions:     1388 in task    65
  | Maximal number of non-zero basis functions:     1394 in task    66
  | Maximal number of non-zero basis functions:     1405 in task    67
  | Maximal number of non-zero basis functions:     1404 in task    68
  | Maximal number of non-zero basis functions:     1406 in task    69
  | Maximal number of non-zero basis functions:     1395 in task    70
  | Maximal number of non-zero basis functions:     1386 in task    71
  | Maximal number of non-zero basis functions:     1388 in task    72
  | Maximal number of non-zero basis functions:     1392 in task    73
  | Maximal number of non-zero basis functions:     1413 in task    74
  | Maximal number of non-zero basis functions:     1381 in task    75
  | Maximal number of non-zero basis functions:     1401 in task    76
  | Maximal number of non-zero basis functions:     1410 in task    77
  | Maximal number of non-zero basis functions:     1392 in task    78
  | Maximal number of non-zero basis functions:     1382 in task    79
  Allocating        0.219 MB for KS_eigenvector_complex
  Integrating Hamiltonian matrix: batch-based integration.
  Time summed over all CPUs for integration: real work       68.411 s, elapsed       73.271 s
  Integrating overlap matrix.
  Time summed over all CPUs for integration: real work       51.479 s, elapsed       54.987 s
  Decreasing sparse matrix size:
   Tolerance:  9.999999824516700E-014
   Hamiltonian matrix
  | Array has   221102 nonzero elements out of   278651 elements
  | Sparsity factor is 0.207
   Overlap matrix
  | Array has   206351 nonzero elements out of   278651 elements
  | Sparsity factor is 0.259
  New size of hamiltonian matrix:      222495

  Updating Kohn-Sham eigenvalues and eigenvectors using ELSI and the ELPA eigensolver.
  Overlap matrix is nonsingular
  | Lowest eigenvalue of overlap  :  0.33E-03
  | Highest eigenvalue of overlap :  0.60E+01
  Finished singularity check of overlap matrix
  | Time :     0.002 s
  Finished Cholesky decomposition
  | Time :     0.001 s
  Finished transformation to standard eigenproblem
  | Time :     0.001 s
  Starting LAPACK eigensolver
  Finished solving standard eigenproblem
  | Time :     0.002 s
  Finished back-transformation of eigenvectors
  | Time :     0.000 s

  Obtaining occupation numbers and chemical potential using ELSI.
  | Chemical potential (Fermi level):    -4.26780195eV
  Writing Kohn-Sham eigenvalues.
  K-point:       1 at    0.000000    0.000000    0.000000 (in units of recip. lattice)

  State    Occupation    Eigenvalue [Ha]    Eigenvalue [eV]
      1       2.00000        -745.373219       -20282.63727
      2       2.00000        -466.369315       -12690.55476
      3       2.00000        -466.369315       -12690.55476
      4       2.00000        -103.317174        -2811.40336
      5       2.00000         -92.337543        -2512.63238
      6       2.00000         -92.337543        -2512.63238
      7       2.00000         -92.337538        -2512.63226
      8       2.00000         -59.234613        -1611.85582
      9       2.00000         -59.234613        -1611.85582
     10       2.00000         -52.093106        -1417.52555
     11       2.00000         -52.093106        -1417.52555
     12       2.00000         -52.093056        -1417.52417
     13       2.00000         -52.093056        -1417.52417
     14       2.00000         -52.093056        -1417.52417
     15       2.00000         -52.093056        -1417.52417
     16       2.00000         -17.547209         -477.48385
     17       2.00000         -13.966599         -380.05049
     18       2.00000         -13.966599         -380.05049
     19       2.00000         -13.966563         -380.04950
     20       2.00000          -8.149547         -221.76046
     21       2.00000          -8.149547         -221.76046
     22       2.00000          -8.149543         -221.76035
     23       2.00000          -8.149543         -221.76035
     24       2.00000          -8.149495         -221.75905
     25       2.00000          -7.881791         -214.47445
     26       2.00000          -7.881791         -214.47445
     27       2.00000          -5.656248         -153.91433
     28       2.00000          -5.656247         -153.91432
     29       2.00000          -5.655655         -153.89820
     30       2.00000          -5.655655         -153.89820
     31       2.00000          -5.655655         -153.89820
     32       2.00000          -5.655655         -153.89820
     33       2.00000          -2.403772          -65.40997
     34       2.00000          -1.988190          -54.10142
     35       2.00000          -1.988190          -54.10141
     36       2.00000          -1.988149          -54.10029
     37       2.00000          -1.988149          -54.10029
     38       2.00000          -1.988146          -54.10022
     39       2.00000          -1.988061          -54.09788
     40       2.00000          -1.987432          -54.08077
     41       2.00000          -1.987432          -54.08077
     42       2.00000          -1.987425          -54.08059
     43       2.00000          -1.987425          -54.08059
     44       2.00000          -1.463137          -39.81398
     45       2.00000          -1.454752          -39.58580
     46       2.00000          -1.454752          -39.58580
     47       2.00000          -0.773240          -21.04092
     48       2.00000          -0.731724          -19.91122
     49       2.00000          -0.439509          -11.95964
     50       2.00000          -0.307150           -8.35799
     51       2.00000          -0.306873           -8.35043
     52       2.00000          -0.306873           -8.35043
     53       2.00000          -0.267931           -7.29077
     54       2.00000          -0.267931           -7.29076
     55       2.00000          -0.223327           -6.07704
     56       0.00000          -0.118718           -3.23047
     57       0.00000          -0.118718           -3.23047
     58       0.00000          -0.110440           -3.00523
     59       0.00000          -0.110440           -3.00523
     60       0.00000          -0.031687           -0.86225
     61       0.00000           0.042297            1.15096
     62       0.00000           0.047843            1.30188
     63       0.00000           0.089901            2.44634
     64       0.00000           0.182355            4.96212
     65       0.00000           0.182355            4.96214
     66       0.00000           0.227752            6.19745
     67       0.00000           0.272393            7.41220
     68       0.00000           0.272394            7.41221
     69       0.00000           0.363939            9.90327
     70       0.00000           0.391719           10.65922
     71       0.00000           0.415956           11.31874
     72       0.00000           0.415956           11.31874
     73       0.00000           0.416601           11.33628
     74       0.00000           0.416601           11.33629
     75       0.00000           0.496919           13.52185
     76       0.00000           0.514723           14.00632
     77       0.00000           0.613913           16.70544
     78       0.00000           0.613914           16.70544
     79       0.00000           0.663576           18.05681
     80       0.00000           0.772431           21.01890
     81       0.00000           0.772431           21.01891
     82       0.00000           0.793272           21.58603
     83       0.00000           0.793272           21.58603
     84       0.00000           0.819674           22.30447
     85       0.00000           0.970529           26.40944
     86       0.00000           0.970530           26.40946
     87       0.00000           0.974410           26.51504
     88       0.00000           0.974410           26.51505
     89       0.00000           1.019822           27.75076
     90       0.00000           1.066401           29.01826
     91       0.00000           1.091078           29.68974
     92       0.00000           1.327814           36.13165
     93       0.00000           1.330958           36.21721
     94       0.00000           1.330959           36.21725
     95       0.00000           1.339310           36.44447
     96       0.00000           1.341250           36.49727
     97       0.00000           1.341250           36.49728
     98       0.00000           1.377520           37.48423
     99       0.00000           1.422197           38.69994
    100       0.00000           1.438853           39.15318
    101       0.00000           1.438853           39.15319
    102       0.00000           1.475667           40.15493
    103       0.00000           1.475669           40.15500
    104       0.00000           1.564498           42.57216
    105       0.00000           1.564498           42.57217
    106       0.00000           1.611553           43.85258
    107       0.00000           1.821339           49.56114
    108       0.00000           1.821340           49.56117
    109       0.00000           2.064208           56.16997
    110       0.00000           2.113317           57.50628
    111       0.00000           2.113317           57.50629
    112       0.00000           2.117498           57.62006
    113       0.00000           2.252073           61.28202
    114       0.00000           2.252073           61.28203
    115       0.00000           2.291628           62.35837
    116       0.00000           2.318010           63.07627
    117       0.00000           2.318011           63.07628

  What follows are estimated values for band gap, HOMO, LUMO, etc.
  | They are estimated on a discrete k-point grid and not necessarily exact.
  | For converged numbers, create a DOS and/or band structure plot on a denser k-grid.

  Highest occupied state (VBM) after the GW correction at     -5.84116133 eV (relative to internal zero)
  | Occupation number:      2.00000000
  | K-point:      53 at    0.333333    0.333333    0.000000 (in units of recip. lattice)

  Lowest unoccupied state (CBM) after the GW correction at    -4.22359599 eV (relative to internal zero)
  | Occupation number:      0.00000000
  | K-point:      59 at    0.333333    0.833333    0.000000 (in units of recip. lattice)

  ESTIMATED overall HOMO-LUMO gap:      1.61756534 eV between HOMO at k-point 53 and LUMO at k-point 59
  | This appears to be an indirect band gap.
  | Smallest direct gap :      1.66442206 eV for k_point 53 at    0.333333    0.833333    0.000000 (in units of recip. lattice)
  The gap value is above 0.2 eV. Unless you are using a very sparse k-point grid,
  this system is most likely an insulator or a semiconductor.
  Calculating total energy contributions from superposition of free atom densities.

  Total energy components:
  | Sum of eigenvalues            :       -5339.59596558 Ha     -145297.79889413 eV
  | XC energy correction          :        -300.83995303 Ha       -8186.27163477 eV
  | XC potential correction       :         391.73364249 Ha       10659.61476744 eV
  | Free-atom electrostatic energy:       -3730.36548212 Ha     -101508.40945957 eV
  | Hartree energy correction     :           0.00000000 Ha           0.00000000 eV
  | Entropy correction            :          -0.00000000 Ha          -0.00000000 eV
  | ---------------------------
  | Total energy                  :       -8979.06775824 Ha     -244332.86522103 eV
  | Total energy, T -> 0          :       -8979.06775824 Ha     -244332.86522103 eV  <-- do not rely on this value for anything but (periodic) metals
  | Electronic free energy        :       -8979.06775824 Ha     -244332.86522103 eV

  Derived energy quantities:
  | Kinetic energy                :        9207.22678442 Ha      250541.38820953 eV
  | Electrostatic energy          :      -17885.45458963 Ha     -486687.98179578 eV
  | Energy correction for multipole
  | error in Hartree potential    :           0.00000000 Ha           0.00000000 eV
  | Sum of eigenvalues per atom                           :      -48432.59963138 eV
  | Total energy (T->0) per atom                          :      -81444.28840701 eV  <-- do not rely on this value for anything but (periodic) metals
  | Electronic free energy per atom                       :      -81444.28840701 eV
  Initialize hartree_potential_storage
  Max. number of atoms included in rho_multipole:            3

  End scf initialization - timings             :  max(cpu_time)    wall_clock(cpu1)
  | Time for scf. initialization               :       31.864 s          31.836 s
  | Boundary condition initialization          :        0.884 s           0.884 s
  | Integration                                :        2.176 s           2.149 s
  | Solution of K.-S. eqns.                    :        0.044 s           0.042 s
  | Grid partitioning                          :        0.356 s           0.350 s
  | Preloading free-atom quantities on grid    :        0.036 s           0.041 s
  | Free-atom superposition energy             :        1.424 s           1.423 s
  | Total energy evaluation                    :        0.004 s           0.001 s

  Partial memory accounting:
  | Current value for overall tracked memory usage on task 0  :           4.670 MB
  | Peak value for overall tracked memory usage on task 0     :          27.358 MB after allocating wave
  | Largest tracked array allocation on task 0 so far         :          15.770 MB  when allocating hamiltonian_shell
  Note:  These values currently only include a subset of arrays which are explicitly tracked.
  The "true" memory usage will be greater.
------------------------------------------------------------

------------------------------------------------------------
          Begin self-consistency iteration #    1

  Date     :  20191025, Time     :  103801.500
------------------------------------------------------------
  Evaluating new KS density using the density matrix
  Evaluating density matrix
  Time summed over all CPUs for getting density from density matrix: real work      137.720 s, elapsed      145.760 s
  Integration grid: deviation in total charge (<rho> - N_e) =   1.688250E-11
  Pulay mixing of updated and previous charge densities.

  Evaluating partitioned Hartree potential by multipole expansion.
  | Analytical far-field extrapolation by fixed multipoles:
  | Hartree multipole sum: apparent total charge =   0.192315E-03
  Summing up the Hartree potential.
  | Estimated reciprocal-space cutoff momentum G_max:         1.90186217 bohr^-1 .
  | Reciprocal lattice points for long-range Hartree potential:     660
  Time summed over all CPUs for potential: real work       90.815 s, elapsed       96.519 s
  | RMS charge density error from multipole expansion :   0.225703E-03
  | Average real-space part of the electrostatic potential :     -0.00038991 eV

  Integrating Hamiltonian matrix: batch-based integration.
  Time summed over all CPUs for integration: real work       66.179 s, elapsed       71.273 s

  Updating Kohn-Sham eigenvalues and eigenvectors using ELSI and the ELPA eigensolver.
  Finished Cholesky decomposition
  | Time :     0.000 s
  Finished transformation to standard eigenproblem
  | Time :     0.001 s
  Starting LAPACK eigensolver
  Finished solving standard eigenproblem
  | Time :     0.003 s
  Finished back-transformation of eigenvectors
  | Time :     0.000 s

  Obtaining occupation numbers and chemical potential using ELSI.
  | Chemical potential (Fermi level):    -4.29260891eV
  Writing Kohn-Sham eigenvalues.
  K-point:       1 at    0.000000    0.000000    0.000000 (in units of recip. lattice)

  State    Occupation    Eigenvalue [Ha]    Eigenvalue [eV]
      1       2.00000        -745.386247       -20282.99178
      2       2.00000        -466.364452       -12690.42242
      3       2.00000        -466.364452       -12690.42242
      4       2.00000        -103.330064        -2811.75410
      5       2.00000         -92.350530        -2512.98579
      6       2.00000         -92.350530        -2512.98578
      7       2.00000         -92.350530        -2512.98578
      8       2.00000         -59.230187        -1611.73538
      9       2.00000         -59.230187        -1611.73538
     10       2.00000         -52.088600        -1417.40292
     11       2.00000         -52.088600        -1417.40292
     12       2.00000         -52.088582        -1417.40243
     13       2.00000         -52.088582        -1417.40243
     14       2.00000         -52.088582        -1417.40243
     15       2.00000         -52.088582        -1417.40243
     16       2.00000         -17.557747         -477.77060
     17       2.00000         -13.977128         -380.33700
     18       2.00000         -13.977125         -380.33693
     19       2.00000         -13.977125         -380.33693
     20       2.00000          -8.160293         -222.05286
     21       2.00000          -8.160293         -222.05286
     22       2.00000          -8.160257         -222.05188
     23       2.00000          -8.160257         -222.05188
     24       2.00000          -8.160226         -222.05106
     25       2.00000          -7.877825         -214.36651
     26       2.00000          -7.877825         -214.36651
     27       2.00000          -5.652203         -153.80426
     28       2.00000          -5.652202         -153.80425
     29       2.00000          -5.651737         -153.79159
     30       2.00000          -5.651737         -153.79159
     31       2.00000          -5.651737         -153.79159
     32       2.00000          -5.651737         -153.79159
     33       2.00000          -2.410254          -65.58634
     34       2.00000          -1.984231          -53.99368
     35       2.00000          -1.984231          -53.99368
     36       2.00000          -1.984189          -53.99254
     37       2.00000          -1.984189          -53.99254
     38       2.00000          -1.984148          -53.99142
     39       2.00000          -1.984062          -53.98909
     40       2.00000          -1.983555          -53.97528
     41       2.00000          -1.983555          -53.97528
     42       2.00000          -1.983549          -53.97511
     43       2.00000          -1.983549          -53.97511
     44       2.00000          -1.468674          -39.96466
     45       2.00000          -1.460371          -39.73873
     46       2.00000          -1.460371          -39.73873
     47       2.00000          -0.770569          -20.96824
     48       2.00000          -0.729186          -19.84215
     49       2.00000          -0.438134          -11.92222
     50       2.00000          -0.306726           -8.34644
     51       2.00000          -0.306726           -8.34643
     52       2.00000          -0.305202           -8.30498
     53       2.00000          -0.267734           -7.28542
     54       2.00000          -0.267734           -7.28541
     55       2.00000          -0.224650           -6.11303
     56       0.00000          -0.118651           -3.22865
     57       0.00000          -0.118651           -3.22865
     58       0.00000          -0.110054           -2.99472
     59       0.00000          -0.110054           -2.99471
     60       0.00000          -0.030567           -0.83176
     61       0.00000           0.042532            1.15736
     62       0.00000           0.048745            1.32641
     63       0.00000           0.091944            2.50192
     64       0.00000           0.183746            5.00000
     65       0.00000           0.183747            5.00001
     66       0.00000           0.228083            6.20646
     67       0.00000           0.273631            7.44587
     68       0.00000           0.273631            7.44588
     69       0.00000           0.365282            9.93984
     70       0.00000           0.393306           10.70239
     71       0.00000           0.416541           11.33467
     72       0.00000           0.416541           11.33467
     73       0.00000           0.417830           11.36974
     74       0.00000           0.417830           11.36974
     75       0.00000           0.497810           13.54611
     76       0.00000           0.515407           14.02495
     77       0.00000           0.614141           16.71162
     78       0.00000           0.614141           16.71162
     79       0.00000           0.665745           18.11585
     80       0.00000           0.772783           21.02851
     81       0.00000           0.772784           21.02851
     82       0.00000           0.794056           21.60737
     83       0.00000           0.794056           21.60738
     84       0.00000           0.820329           22.32228
     85       0.00000           0.970029           26.39583
     86       0.00000           0.970030           26.39585
     87       0.00000           0.975239           26.53760
     88       0.00000           0.975239           26.53761
     89       0.00000           1.019935           27.75384
     90       0.00000           1.065434           28.99193
     91       0.00000           1.090555           29.67552
     92       0.00000           1.330104           36.19397
     93       0.00000           1.331954           36.24432
     94       0.00000           1.331956           36.24436
     95       0.00000           1.339140           36.43984
     96       0.00000           1.341814           36.51261
     97       0.00000           1.341814           36.51262
     98       0.00000           1.378575           37.51293
     99       0.00000           1.423956           38.74782
    100       0.00000           1.440845           39.20738
    101       0.00000           1.440845           39.20738
    102       0.00000           1.477182           40.19618
    103       0.00000           1.477185           40.19625
    104       0.00000           1.565623           42.60278
    105       0.00000           1.565624           42.60278
    106       0.00000           1.612557           43.87992
    107       0.00000           1.821344           49.56130
    108       0.00000           1.821345           49.56133
    109       0.00000           2.063755           56.15764
    110       0.00000           2.112612           57.48709
    111       0.00000           2.112612           57.48710
    112       0.00000           2.117172           57.61119
    113       0.00000           2.251542           61.26757
    114       0.00000           2.251542           61.26757
    115       0.00000           2.291079           62.34343
    116       0.00000           2.317342           63.05807
    117       0.00000           2.317342           63.05808

  What follows are estimated values for band gap, HOMO, LUMO, etc.
  | They are estimated on a discrete k-point grid and not necessarily exact.
  | For converged numbers, create a DOS and/or band structure plot on a denser k-grid.

  Highest occupied state (VBM) after the GW correction at     -5.87661990 eV (relative to internal zero)
  | Occupation number:      2.00000000
  | K-point:      53 at    0.333333    0.333333    0.000000 (in units of recip. lattice)

  Lowest unoccupied state (CBM) after the GW correction at    -4.24840890 eV (relative to internal zero)
  | Occupation number:      0.00000000
  | K-point:      59 at    0.333333    0.833333    0.000000 (in units of recip. lattice)

  ESTIMATED overall HOMO-LUMO gap:      1.62821100 eV between HOMO at k-point 53 and LUMO at k-point 59
  | This appears to be an indirect band gap.
  | Smallest direct gap :      1.64085419 eV for k_point 53 at    0.333333    0.833333    0.000000 (in units of recip. lattice)
  The gap value is above 0.2 eV. Unless you are using a very sparse k-point grid,
  this system is most likely an insulator or a semiconductor.

  Total energy components:
  | Sum of eigenvalues            :       -5339.70547761 Ha     -145300.77886812 eV
  | XC energy correction          :        -300.82878398 Ha       -8185.96770957 eV
  | XC potential correction       :         391.71913230 Ha       10659.21992493 eV
  | Free-atom electrostatic energy:       -3730.36548212 Ha     -101508.40945957 eV
  | Hartree energy correction     :           0.11975327 Ha           3.25865214 eV
  | Entropy correction            :          -0.00000000 Ha          -0.00000000 eV
  | ---------------------------
  | Total energy                  :       -8979.06085816 Ha     -244332.67746019 eV
  | Total energy, T -> 0          :       -8979.06085816 Ha     -244332.67746019 eV  <-- do not rely on this value for anything but (periodic) metals
  | Electronic free energy        :       -8979.06085816 Ha     -244332.67746019 eV

  Derived energy quantities:
  | Kinetic energy                :        9207.13165691 Ha      250538.79965827 eV
  | Electrostatic energy          :      -17885.36373108 Ha     -486685.50940889 eV
  | Energy correction for multipole
  | error in Hartree potential    :          -0.00002655 Ha          -0.00072251 eV
  | Sum of eigenvalues per atom                           :      -48433.59295604 eV
  | Total energy (T->0) per atom                          :      -81444.22582006 eV  <-- do not rely on this value for anything but (periodic) metals
  | Electronic free energy per atom                       :      -81444.22582006 eV

  Self-consistency convergence accuracy:
  | Change of charge density      :  0.2242E+00
  | Change of sum of eigenvalues  : -0.2980E+01 eV
  | Change of total energy        :  0.1878E+00 eV

  End self-consistency iteration #     1       :  max(cpu_time)    wall_clock(cpu1)
  | Time for this iteration                    :        4.508 s           4.501 s
  | Charge density update                      :        1.928 s           1.926 s
  | Density mixing & preconditioning           :        0.152 s           0.150 s
[...]

  Initialising transformed Gauss-Legendre time and frequency grids
  Number of frequency points for self energy.....: 40
  Number of frequency points....................: 40

 
 ---------------------------------------------------
 ---------------------------------
  Start to calculate the periodic GW self energy  ... 
 ojo gwblocks          65          65           1
 
  Starting main loop of GW computation
 
  finished   6.7% of GW computation
  finished  13.3% of GW computation
  finished  20.0% of GW computation
  finished  26.7% of GW computation
  finished  33.3% of GW computation
  finished  40.0% of GW computation
  finished  46.7% of GW computation
  finished  53.3% of GW computation
  finished  60.0% of GW computation
  finished  66.7% of GW computation
  finished  73.3% of GW computation
  finished  80.0% of GW computation
  finished  86.7% of GW computation
  finished  93.3% of GW computation
  finished 100.0% of GW computation
 
 CPOUT:    19720339.7150947     
 GWOUT:    233.891272602541     
 GWBOUT:    233.829546645027     
  Atomic logSBT for 2-center Coulomb matrix    :  max(cpu_time)    wall_clock(cpu1)
  | TB initialization                          :        0.740 s           0.740 s
  | TB usage                                   :        0.000 s           0.000 s

  Integrating local/semilocal matrix: batch-based integration.
  Time summed over all CPUs for integration: real work      181.218 s, elapsed      194.924 s

  -------------------------------------------------------------------
  Writing the requested band structure output:
  -------------------------------------------------------------------

 
  Analytical continuation of the self-energy starts...
  Self-energy fitting with accuary         0.100E-14 is NOT achieved after    301 iterations.
 The accuracy achieved currently is        0.352E-12

  Treating all   31 k-points in band plot segment #   1:

  | Maximum value outside interaction range:  3.38E-14
 TBOUT:    1656396.34258600     
 ojo emblocks          56          56           1
 FMOUT:    461.205887326612      (347.054501734460,8.048141397874191E-016)
 TBOUT:    1663658.69352147     
 ojo emblocks          56          56           1
 TBOUT:    1667348.78471362     
 ojo emblocks          56          56           1
 TBOUT:    1667348.78444671     
 ojo emblocks          56          56           1
 TBOUT:    1663658.69208597     
 ojo emblocks          56          56           1
 TBOUT:    1656396.34385260     
 ojo emblocks          56          56           1
 TBOUT:    1663658.69372653     
 ojo emblocks          56          56           1
 TBOUT:    1667348.78458016     
 ojo emblocks          56          56           1
 TBOUT:    1667348.78377957     
 ojo emblocks          56          56           1
 TBOUT:    1663658.69126570     
 ojo emblocks          56          56           1
 TBOUT:    1656396.34513902     
 ojo emblocks          56          56           1
 TBOUT:    1663658.69454681     
 ojo emblocks          56          56           1
 TBOUT:    1667348.78484706     
 ojo emblocks          56          56           1
 TBOUT:    1667348.78431329     
 ojo emblocks          56          56           1
 TBOUT:    1663658.69290625     
 ojo emblocks          56          56           1
 TBOUT:    1656396.34258603     
 ojo emblocks          56          56           1
 TBOUT:    1663658.69782802     
 ojo emblocks          56          56           1
 TBOUT:    1667348.78431330     
 ojo emblocks          56          56           1
 TBOUT:    1667348.78324580     
 ojo emblocks          56          56           1
 TBOUT:    1663658.69454688     
 ojo emblocks          56          56           1
 TBOUT:    1656396.34772209     
 ojo emblocks          56          56           1
 TBOUT:    1663658.69126569     
 ojo emblocks          56          56           1
 TBOUT:    1667348.78538081     
 ojo emblocks          56          56           1
 TBOUT:    1667348.78538080     
 ojo emblocks          56          56           1
 TBOUT:    1663658.69126568     
 ojo emblocks          56          56           1
 TBOUT:    1656396.34772202     
 ojo emblocks          56          56           1
 TBOUT:    1663658.69454683     
 ojo emblocks          56          56           1
 TBOUT:    1667348.78324584     
 ojo emblocks          56          56           1
 TBOUT:    1667348.78431329     
 ojo emblocks          56          56           1
 TBOUT:    1663658.69782802     
 ojo emblocks          56          56           1
 TBOUT:    1656396.34258601     
 ojo emblocks          56          56           1
 
------------------------------------------------------------------------------
  Start to calculate the exact-exchange and DFT xc contribution for each single-particle level ...

  "GW Band gap" along reciprocal space direction number:    1
  | Lowest unoccupied state:          -2.921622 eV
  | Highest occupied state :          -5.559042 eV
  | Energy difference      :           2.637420 eV


  Treating all   31 k-points in band plot segment #   2:

  | Maximum value outside interaction range:  3.38E-14
 TBOUT:    1656396.34258601     
 ojo emblocks          56          56           1
 FMOUT:    500.748908135938      (349.084159556178,4.185150674499066E-015)
 TBOUT:    1660242.31096670     
 ojo emblocks          56          56           1
 TBOUT:    1663051.20810397     
 ojo emblocks          56          56           1
 TBOUT:    1664723.81750891     
 ojo emblocks          56          56           1
 TBOUT:    1665277.42349176     
 ojo emblocks          56          56           1
 TBOUT:    1664846.99940658     
 ojo emblocks          56          56           1
 TBOUT:    1666792.48222036     
 ojo emblocks          56          56           1
 TBOUT:    1667721.28924249     
 ojo emblocks          56          56           1
 TBOUT:    1667721.29356358     
 ojo emblocks          56          56           1
 TBOUT:    1666792.49876829     
 ojo emblocks          56          56           1
 TBOUT:    1664846.99004175     
 ojo emblocks          56          56           1
 TBOUT:    1665277.36083621     
 ojo emblocks          56          56           1
 TBOUT:    1664723.76909237     
 ojo emblocks          56          56           1
 TBOUT:    1663051.17671964     
 ojo emblocks          56          56           1
 TBOUT:    1660242.29618422     
 ojo emblocks          56          56           1
 TBOUT:    1656396.46767964     
 ojo emblocks          56          56           1
 TBOUT:    1660242.32994739     
 ojo emblocks          56          56           1
 TBOUT:    1663051.24031796     
 ojo emblocks          56          56           1
 TBOUT:    1664723.86811834     
 ojo emblocks          56          56           1
 TBOUT:    1665277.48771193     
 ojo emblocks          56          56           1
 TBOUT:    1664847.06634338     
 ojo emblocks          56          56           1
 TBOUT:    1666792.46573785     
 ojo emblocks          56          56           1
 TBOUT:    1667721.28615677     
 ojo emblocks          56          56           1
 TBOUT:    1667721.29946427     
 ojo emblocks          56          56           1
 TBOUT:    1666792.51688911     
 ojo emblocks          56          56           1
 TBOUT:    1664847.01243966     
 ojo emblocks          56          56           1
 TBOUT:    1665277.29877161     
 ojo emblocks          56          56           1
 TBOUT:    1664723.72234168     
 ojo emblocks          56          56           1
 TBOUT:    1663051.14611186     
 ojo emblocks          56          56           1
 TBOUT:    1660242.28491285     
 ojo emblocks          56          56           1
 TBOUT:    1656396.59289369     
 ojo emblocks          56          56           1
 
------------------------------------------------------------------------------
  Start to calculate the exact-exchange and DFT xc contribution for each single-particle level ...

  "GW Band gap" along reciprocal space direction number:    2
  | Lowest unoccupied state:          -3.183527 eV
  | Highest occupied state :          -5.164524 eV
  | Energy difference      :           1.980996 eV


  Treating all   31 k-points in band plot segment #   3:

  | Maximum value outside interaction range:  3.38E-14
 TBOUT:    1656396.59289369     
 ojo emblocks          56          56           1
 FMOUT:    474.733620696104      (347.782197822705,-4.06890015044651)
 TBOUT:    1663051.33241888     
 ojo emblocks          56          56           1
 TBOUT:    1665277.40790518     
 ojo emblocks          56          56           1
 TBOUT:    1666792.56783081     
 ojo emblocks          56          56           1
 TBOUT:    1667721.27125680     
 ojo emblocks          56          56           1
 TBOUT:    1664847.01130788     
 ojo emblocks          56          56           1
 TBOUT:    1664723.75396183     
 ojo emblocks          56          56           1
 TBOUT:    1660242.15524639     
 ojo emblocks          56          56           1
 TBOUT:    1660242.46004712     
 ojo emblocks          56          56           1
 TBOUT:    1664723.85494224     
 ojo emblocks          56          56           1
 TBOUT:    1664847.06804194     
 ojo emblocks          56          56           1
 TBOUT:    1667721.30505898     
 ojo emblocks          56          56           1
 TBOUT:    1666792.43504814     
 ojo emblocks          56          56           1
 TBOUT:    1665277.40541930     
 ojo emblocks          56          56           1
 TBOUT:    1663051.13225432     
 ojo emblocks          56          56           1
 TBOUT:    1656396.46767971     
 ojo emblocks          56          56           1
 TBOUT:    1663051.26933458     
 ojo emblocks          56          56           1
 TBOUT:    1665277.40706554     
 ojo emblocks          56          56           1
 TBOUT:    1666792.52575755     
 ojo emblocks          56          56           1
 TBOUT:    1667721.28274556     
 ojo emblocks          56          56           1
 TBOUT:    1664846.99149871     
 ojo emblocks          56          56           1
 TBOUT:    1664723.78828519     
 ojo emblocks          56          56           1
 TBOUT:    1660242.25285069     
 ojo emblocks          56          56           1
 TBOUT:    1660242.35345163     
 ojo emblocks          56          56           1
 TBOUT:    1664723.82161406     
 ojo emblocks          56          56           1
 TBOUT:    1664846.99682815     
 ojo emblocks          56          56           1
 TBOUT:    1667721.29390290     
 ojo emblocks          56          56           1
 TBOUT:    1666792.48171424     
 ojo emblocks          56          56           1
 TBOUT:    1665277.40624262     
 ojo emblocks          56          56           1
 TBOUT:    1663051.20277818     
 ojo emblocks          56          56           1
 TBOUT:    1656396.34258600     
 ojo emblocks          56          56           1
 
------------------------------------------------------------------------------
  Start to calculate the exact-exchange and DFT xc contribution for each single-particle level ...

  "GW Band gap" along reciprocal space direction number:    3
  | Lowest unoccupied state:          -3.183527 eV
  | Highest occupied state :          -5.164524 eV
  | Energy difference      :           1.980996 eV

  "GW Band gap" of total set of bands:
  | Lowest unoccupied state:      -3.18352724 eV at k point       0.33333      0.33333      0.00000
  | Highest occupied state :      -5.16452366 eV at k point       0.33333      0.33333      0.00000
  | Energy difference      :       1.98099642 eV


------------------------------------------------------------------------------
  Final output of selected total energy values:

  The following output summarizes some interesting total energy values
  at the end of a run (AFTER all relaxation, molecular dynamics, etc.).

  | Total energy of the DFT / Hartree-Fock s.c.f. calculation      :        -244331.912207987 eV
  | Final zero-broadening corrected energy (caution - metals only) :        -244331.912207987 eV
  | For reference only, the value of 1 Hartree used in FHI-aims is :             27.211384500 eV

  Before relying on these values, please be sure to understand exactly which
  total energy value is referred to by a given number. Different objects may
  all carry the same name 'total energy'. Definitions:

  Total energy of the DFT / Hartree-Fock s.c.f. calculation:
  | Note that this energy does not include ANY quantities calculated after the
  | s.c.f. cycle, in particular not ANY RPA, MP2, etc. many-body perturbation terms.

  Final zero-broadening corrected energy:
  | For metallic systems only, a broadening of the occupation numbers at the Fermi
  | level can be extrapolated back to zero broadening by an electron-gas inspired
  | formula. For all systems that are not real metals, this value can be
  | meaningless and should be avoided.

------------------------------------------------------------------------------
  Methods described in the following list of references were used in this FHI-aims run.
  If you publish the results, please make sure to cite these reference if they apply.
  FHI-aims is an academic code, and for our developers (often, Ph.D. students
  and postdocs), scientific credit in the community is essential.
  Thank you for helping us!

  For any use of FHI-aims, please cite:

    Volker Blum, Ralf Gehrke, Felix Hanke, Paula Havu, Ville Havu,
    Xinguo Ren, Karsten Reuter, and Matthias Scheffler
    'Ab initio molecular simulations with numeric atom-centered orbitals'
    Computer Physics Communications 180, 2175-2196 (2009)
    http://dx.doi.org/10.1016/j.cpc.2009.06.022


  For Hartree-Fock, hybrid functionals, or many-body perturbation theory used in your run, please cite:

    Xinguo Ren, Patrick Rinke, Volker Blum, Juergen Wieferink, Alex Tkatchenko,
    Andrea Sanfilippo, Karsten Reuter, and Matthias Scheffler,
    'Resolution-of-identity approach to Hartree-Fock, hybrid density functionals,
    RPA, MP2, and GW with numeric atom-centered orbital basis functions'
    New Journal of Physics 14, 053020 (2012).
    http://dx.doi.org/10.1088/1367-2630/14/5/053020


  The scalable eigensolver library ELPA was used in your run.
  ELPA is essential especially for large systems on hundreds or thousands of CPUs.
  For ELPA, please cite:

    Andreas Marek, Volker Blum, Rainer Johanni, Ville Havu, Bruno Lang,
    Thomas Auckenthaler, Alexander Heinecke, Hans-Joachim Bungartz, and Hermann Lederer,
    'The ELPA Library - Scalable Parallel Eigenvalue Solutions
    for Electronic Structure Theory and Computational Science'
    The Journal of Physics: Condensed Matter 26, 213201 (2014).
    http://dx.doi.org/10.1088/0953-8984/26/21/213201


  The ELSI infrastructure was used in your run to solve the Kohn-Sham electronic structure.
  Please check out http://elsi-interchange.org to learn more.
  If scalability is important for your project, please acknowledge ELSI by citing:

    V. W-z. Yu, F. Corsetti, A. Garcia, W. P. Huhn, M. Jacquelin, W. Jia,
    B. Lange, L. Lin, J. Lu, W. Mi, A. Seifitokaldani, A. Vazquez-Mayagoitia,
    C. Yang, H. Yang, and V. Blum
    'ELSI: A unified software interface for Kohn-Sham electronic structure solvers'
    Computer Physics Communications 222, 267-285 (2018).
    http://dx.doi.org/10.1016/j.cpc.2017.09.007


  For the real-space grid partitioning and parallelization used in this calculation, please cite:

    Ville Havu, Volker Blum, Paula Havu, and Matthias Scheffler,
    'Efficient O(N) integration for all-electron electronic structure calculation'
    'using numerically tabulated basis functions'
    Journal of Computational Physics 228, 8367-8379 (2009).
    http://dx.doi.org/10.1016/j.jcp.2009.08.008

  Of course, there are many other important community references, e.g., those cited in the
  above references. Our list is limited to references that describe implementations in the
  FHI-aims code. The reason is purely practical (length of this list) - please credit others as well.

 * Warning - angular integration grids had to be adjusted for use with RI_method 'V'.
 * Background: You are using an electronic structure method that requires RI_method 'V'
 * for the resolution of identity of the Coulomb operator. (See Ren et al.,
 * New J. Phys 2012 for details.) This method requires three-center integrations
 * to be carried out on FHI-aims' normal angular and radial integration grids.
 * (See FHI-aims CPC Blum et al. 2009, p. 2183 for grid details and references.)
 * One of the angular grids specified in your control.in file was not large
 * enough for the maximal angular momenta of orbital and product basis functions
 * for its species.
 * This can lead to atomic total energy errors which cancel in energy differences.
 * Effective Sep 22, 2014, we have changed the default behavior of the code to
 * simply 'upgrade' the angular grids internally to a safe setting in this case.
 * Please be sure to NOT mix total energies from before and after the change.

------------------------------------------------------------
          Leaving FHI-aims.
          Date     :  20191026, Time     :  050029.529

          Computational steps:
          | Number of self-consistency cycles          :           21
          | Number of SCF (re)initializations          :            1

          Detailed time accounting                     :  max(cpu_time)    wall_clock(cpu1)
          | Total time                                 :    66230.996 s       66180.459 s
          | Preparation time                           :        0.492 s           0.489 s
          | Boundary condition initalization           :        0.884 s           0.884 s
          | Grid partitioning                          :        0.356 s           0.350 s
          | Preloading free-atom quantities on grid    :        0.036 s           0.041 s
          | Free-atom superposition energy             :        1.424 s           1.423 s
          | Total time for integrations                :       26.064 s          25.987 s
          | Product basis setup: Total time            :        0.000 s           0.000 s
          | Product basis: | 2-center integrations     :(       0.000 s)  (       0.000 s)
          | Product basis: | 2-center linear algebra   :(       0.000 s)  (       0.000 s)
          | Product basis: | LVL 3-center & coefficient:(       0.000 s)  (       0.000 s)
          | Transforming LVL triples to recip. space   :      226.972 s         226.796 s
          | Transforming ovlp_3fn to ovlp_3KS          :        0.000 s           0.000 s
          | Total time for evaluating scr. Coulomb matr:     9664.652 s        9666.497 s
          | Total time for GW self-energy              :    24168.356 s       24171.846 s
          | Total time for GW band structure calc.     :    24585.068 s       24590.174 s
          | Total time for solution of K.-S. equations :        0.892 s           0.871 s
          | Total time for density update              :       40.684 s          40.608 s
          | Total time for mixing & preconditioning    :        3.528 s           3.507 s
          | Total time for Hartree multipole update    :        0.252 s           0.203 s
          | Total time for Hartree multipole sum       :       31.792 s          31.748 s
          | Total time for total energy evaluation     :        0.088 s           0.024 s
          | Total time for scaled ZORA corrections     :        0.000 s           0.000 s
          | Total time for band structures, DOS        :        0.000 s           0.000 s

          | Largest tracked array allocation (+ovlp3fn_rcv):
          |   Minimum:       74.268 MB (on task  1)
          |   Maximum:       74.268 MB (on task  1)
          |   Average:       74.268 MB

          Have a nice day.
------------------------------------------------------------
