------------------------------------------------------------
          Invoking FHI-aims ...

          When using FHI-aims, please cite the following reference:

            Volker Blum, Ralf Gehrke, Felix Hanke, Paula Havu,
            Ville Havu, Xinguo Ren, Karsten Reuter, and Matthias Scheffler,
            'Ab Initio Molecular Simulations with Numeric Atom-Centered Orbitals',
            Computer Physics Communications 180, 2175-2196 (2009)

          In addition, many other developments in FHI-aims are likely important for
          your particular application. A partial list of references is given at the end of
          this file. Thank you for giving credit to the authors of these developments.

          For any questions about FHI-aims, please visit our slack channel at

            https://fhi-aims.slack.com

          and our main development and support site at

            https://aims-git.rz-berlin.mpg.de .

          The latter site, in particular, has a wiki to collect information, as well
          as an issue tracker to log discussions, suggest improvements, and report issues
          or bugs. https://aims-git.rz-berlin.mpg.de is also the main development site
          of the project and all new and updated code versions can be obtained there.
          Please send an email to aims-coordinators@fhi-berlin.mpg.de and we will add
          you to these sites. They are for you and everyone is welcome there.

------------------------------------------------------------



  Date     :  20210520, Time     :  200620.472
  Time zero on CPU 1             :   0.195090000000000E-01  s.
  Internal wall clock time zero  :           390773180.472  s.

  FHI-aims created a unique identifier for this run for later identification
  aims_uuid : 53EEC852-F0C6-4FC7-AAA2-A94BAB726AD0

  Build configuration of the current instance of FHI-aims
  -------------------------------------------------------
  FHI-aims version      : 210513
  Commit number         : 168eee114
  CMake host system     : Linux-5.4.72-microsoft-standard-WSL2
  CMake version         : 3.19.4
  Fortran compiler      : /home/rkempt/miniconda3/envs/aims-env/bin/mpifort (GNU) version 9.3.0
  Fortran compiler flags: -O2 -ffree-line-length-none
  C compiler            : /home/rkempt/miniconda3/envs/aims-env/bin/gcc (GNU) version 9.3.0
  C compiler flags      : -O2 -funroll-loops -std=gnu99
  Using MPI
  Using LibXC
  Using i-PI
  Using RLSY
  Linking against: /home/rkempt/miniconda3/envs/aims-env/lib/libmkl_intel_lp64.so
                   /home/rkempt/miniconda3/envs/aims-env/lib/libmkl_sequential.so
                   /home/rkempt/miniconda3/envs/aims-env/lib/libmkl_core.so

  Using        2 parallel tasks.
  Task        0 on host DESKTOP-VF3RMOI reporting.
  Task        1 on host DESKTOP-VF3RMOI reporting.

  Performing system and environment tests:
  *** Environment variable OMP_NUM_THREADS is not set
  *** For performance reasons you might want to set it to 1
  | Checking for ScaLAPACK...
  | No ScaLAPACK compiled in.

  Obtaining array dimensions for all initial allocations:
  
  -----------------------------------------------------------------------
  Parsing control.in (first pass over file, find array dimensions only).
  The contents of control.in will be repeated verbatim below
  unless switched off by setting 'verbatim_writeout .false.' .
  in the first line of control.in .
  -----------------------------------------------------------------------
  
  #===============================================================================
  # FHI-aims file: control.in
  # Created using the Atomic Simulation Environment (ASE)
  # Thu May 20 19:49:35 2021
  #===============================================================================
  xc                                 pbe
  # include_spin_orbit
  # use_dipole_correction
  ## Common choices of dispersion methods:
  # 	 vdw_correction_hirshfeld
  # 	 many_body_dispersion
  # 	 many_body_dispersion_nl
  output_level 	 	 normal
  relativistic                       atomic_zora scalar
  spin                               none
  k_grid                             7 7 1
  
  check_stacksize .false.
  
  ### SCF settings
  adjust_scf 	 always 	 3
  sc_iter_limit 	 200
  # frozen_core_scf 	 .true.
  charge_mix_param 	 0.02
  occupation_type 	 gaussian 	 0.1
  sc_accuracy_rho 	 1E-4 	 	 # electron density convergence
  # elsi_restart 	 read_and_write 	 1000
  
  ### Band structure section
  ## Brillouin Zone section Nr. 1
  output band 0.000000 0.000000 0.000000 	 0.500000 0.000000 0.000000 	 23 	 G M
  output band 0.500000 0.000000 0.000000 	 0.333333 0.333333 0.000000 	 13 	 M K
  output band 0.333333 0.333333 0.000000 	 0.000000 0.000000 0.000000 	 27 	 K G
  #===============================================================================
  
  ################################################################################
  #
  #  FHI-aims code project
  #  VB, Fritz-Haber Institut, 2009
  #
  #  Suggested "light" defaults for Mo atom (to be pasted into control.in file)
  #  Be sure to double-check any results obtained with these settings for post-processing,
  #  e.g., with the "tight" defaults and larger basis sets.
  #
  ################################################################################
    species        Mo
  #     global species definitions
      nucleus             42
      mass                95.94
  #
      l_hartree           4
  #
      cut_pot             3.5  1.5  1.0
      basis_dep_cutoff    1e-4
  #
      radial_base         59 5.0
      radial_multiplier   1
      angular_grids specified
        division   0.4847   50
        division   0.9168  110
        division   1.2280  194
        division   1.6402  302
  #      division   1.8849  434
  #      division   2.0237  590
  #      division   2.0980  974
  #      division   2.7405 1202
  #      outer_grid  974
        outer_grid  302
  ################################################################################
  #
  #  Definition of "minimal" basis
  #
  ################################################################################
  #     valence basis states
      valence      5  s   1.
      valence      4  p   6.
      valence      4  d   5.
  #     ion occupancy
      ion_occ     5  s   0.
      ion_occ     4  p   6.
      ion_occ     4  d   4.
  ################################################################################
  #
  #  Suggested additional basis functions. For production calculations,
  #  uncomment them one after another (the most important basis functions are
  #  listed first).
  #
  #  Constructed for dimers: 1.675 A, 1.9 A, 2.375 A, 3.00 A, 4.00 A
  #
  ################################################################################
  #  "First tier"  - max. impr. -711.23  meV, min. impr. -21.07 meV
       hydro 4 f 8.4
       hydro 3 d 2.8
       ionic 5 p auto
       hydro 5 g 12
       ionic 5 s auto
  #  "Second tier" - max. impr. -39.38  meV, min. impr. -2.68 meV
  #     hydro 4 f 12.4
  #     hydro 3 d 3.3
  #     hydro 6 h 17.2
  #     hydro 4 f 7.6
  #     hydro 3 p 3.0
  #     hydro 1 s 0.65
  #  "Third tier"  - max. impr. -5.50 meV, min. impr. -0.47 meV
  #     hydro 4 f 29.2
  #     hydro 5 g 11.2
  #     hydro 3 d 6.8
  #     hydro 6 h 14.8
  #     hydro 2 p 2.3
  #     hydro 4 s 3.8
  #  "Fourth tier"  - max. impr. -0.58 meV, min. impr. -0.19 meV
  #     hydro 5 f 6.8
  #     hydro 5 d 14.8
  #     hydro 6 s 7.8
  #     hydro 5 g 20.8
  #     hydro 5 d 10.4
  #     hydro 5 p 9.8
  #  Further functions - -0.17 meV and below
  #     hydro 5 d 3.2
  ################################################################################
  #
  #  FHI-aims code project
  #  VB, Fritz-Haber Institut, 2009
  #
  #  Suggested "light" defaults for S atom (to be pasted into control.in file)
  #  Be sure to double-check any results obtained with these settings for post-processing,
  #  e.g., with the "tight" defaults and larger basis sets.
  #
  ################################################################################
    species        S
  #     global species definitions
      nucleus             16
      mass                32.065
  #
      l_hartree           4
  #
      cut_pot             3.5          1.5  1.0
      basis_dep_cutoff    1e-4
  #
      radial_base         44 5.0
      radial_multiplier   1
      angular_grids       specified
        division   0.4665  110
        division   0.5810  194
        division   0.7139  302
  #      division   0.8274  434
  #      division   0.9105  590
  #      division   1.0975  770
  #      division   1.2028  974
  #      outer_grid  974
        outer_grid  302
  ################################################################################
  #
  #  Definition of "minimal" basis
  #
  ################################################################################
  #     valence basis states
      valence      3  s   2.
      valence      3  p   4.
  #     ion occupancy
      ion_occ      3  s   1.
      ion_occ      3  p   3.
  ################################################################################
  #
  #  Suggested additional basis functions. For production calculations,
  #  uncomment them one after another (the most important basis functions are
  #  listed first).
  #
  #  Constructed for dimers: 1.6 A, 1.9 A, 2.5 A, 3.25 A, 4.0 A
  #
  ################################################################################
  #  "First tier" - improvements: -652.81 meV to -45.53 meV
       ionic 3 d auto
       hydro 2 p 1.8
       hydro 4 f 7
       ionic 3 s auto
  #  "Second tier" - improvements: -30.20 meV to -1.74 meV
  #     hydro 4 d 6.2
  #     hydro 5 g 10.8
  #     hydro 4 p 4.9
  #     hydro 5 f 10
  #     hydro 1 s 0.8
  #  "Third tier" - improvements: -1.04 meV to -0.20 meV
  #     hydro 3 d 3.9
  #     hydro 3 d 2.7
  #     hydro 5 g 12
  #     hydro 4 p 10.4
  #     hydro 5 f 12.4
  #     hydro 2 s 1.9
  #  "Fourth tier" - improvements: -0.35 meV to -0.06 meV
  #     hydro 4 d 10.4
  #     hydro 4 p 7.2
  #     hydro 4 d 10
  #     hydro 5 g 19.2
  #     hydro 4 s 12
  #
  
  -----------------------------------------------------------------------
  Completed first pass over input file control.in .
  -----------------------------------------------------------------------
  
  
  -----------------------------------------------------------------------
  Parsing geometry.in (first pass over file, find array dimensions only).
  The contents of geometry.in will be repeated verbatim below
  unless switched off by setting 'verbatim_writeout .false.' .
  in the first line of geometry.in .
  -----------------------------------------------------------------------
  
  #=======================================================
  # FHI-aims file: geometry.in
  # Created using the Atomic Simulation Environment (ASE)
  # Thu May 20 19:47:28 2021
  #=======================================================
  lattice_vector 3.1600000000000001 0.0000000000000000 0.0000000000000000
  lattice_vector -1.5800000000000001 2.7366402800000000 0.0000000000000000
  lattice_vector 0.0000000000000000 0.0000000000000000 100.0000000000000000
  atom 0.0000000000000002 1.8244268500000000 50.0000000000000000 Mo
  atom 1.5800000000000003 0.9122134300000000 51.5805499999999952 S
  atom 1.5800000000000003 0.9122134300000000 48.4194499999999977 S
  
  homogeneous_field 0 0 0.1
  
  -----------------------------------------------------------------------
  Completed first pass over input file geometry.in .
  -----------------------------------------------------------------------
  
* Attention. An external embedding field
* was specified for a periodic system.
* At present, this combination is experimental,
* and incorrect results could be obtained.
* Please proceed with caution.

  Basic array size parameters:
  | Number of species                 :        2
  | Number of atoms                   :        3
  | Number of lattice vectors         :        3
  | Max. basis fn. angular momentum   :        4
  | Max. atomic/ionic basis occupied n:        5
  | Max. number of basis fn. types    :        3
  | Max. radial fns per species/type  :       10
  | Max. logarithmic grid size        :     1436
  | Max. radial integration grid size :       59
  | Max. angular integration grid size:      302
  | Max. angular grid division number :        8
  | Radial grid for Hartree potential :     1436
  | Number of spin channels           :        1
  | External embedding multipoles     :        0

------------------------------------------------------------
          Reading file control.in.
------------------------------------------------------------
  XC: Using PBE gradient-corrected functionals.
  Requested output level: normal
  Scalar relativistic treatment of kinetic energy: on-site free-atom approximation to ZORA.
  Spin treatment: No spin polarisation.
  Found k-point grid:         7         7         1
  S.C.F. convergence parameters will be adjusted in iteration number     3 of each new s.c.f. cycle.
  Maximum number of s.-c. iterations  :   200
  Charge density mixing - mixing parameter:     0.0200
  Occupation type: Gaussian broadening, width =   0.100000E+00 eV.
  Convergence accuracy of self-consistent charge density:  0.1000E-03

  Plot band    1
  | begin  0.000000  0.000000  0.000000
  | end    0.500000  0.000000  0.000000
  | number of points:   23

  Plot band    2
  | begin  0.500000  0.000000  0.000000
  | end    0.333333  0.333333  0.000000
  | number of points:   13

  Plot band    3
  | begin  0.333333  0.333333  0.000000
  | end    0.000000  0.000000  0.000000
  | number of points:   27

  Reading configuration options for species Mo                  .
  | Found nuclear charge :  42.0000
  | Found atomic mass :    95.939999999999998      amu
  | Found l_max for Hartree potential  :   4
  | Found cutoff potl. onset [A], width [A], scale factor :    3.50000    1.50000    1.00000
  | Threshold for basis-dependent cutoff potential is   0.100000E-03
  | Found data for basic radial integration grid :    59 points, outermost radius =    5.000 A
  | Found multiplier for basic radial grid :   1
  | Found angular grid specification: user-specified.
  | Specified grid contains     5 separate shells.
  | Check grid settings after all constraints further below.
  | Found free-atom valence shell :  5 s   1.000
  | Found free-atom valence shell :  4 p   6.000
  | Found free-atom valence shell :  4 d   5.000
  | Found free-ion valence shell :  5 s   0.000
  | Found free-ion valence shell :  4 p   6.000
  | Found free-ion valence shell :  4 d   4.000
  | Found hydrogenic basis function :  4 f   8.400
  | Found hydrogenic basis function :  3 d   2.800
  | Found ionic basis function :  5 p , default cutoff radius.
  | Found hydrogenic basis function :  5 g  12.000
  | Found ionic basis function :  5 s , default cutoff radius.
  Species Mo                  : Missing cutoff potential type.
  Defaulting to exp(1/x)/(1-x)^2 type cutoff potential.
  Species Mo: No 'logarithmic' tag. Using default grid for free atom:
  | Default logarithmic grid data [bohr] : 0.1000E-03 0.1000E+03 0.1012E+01
  | Will include ionic basis functions of  2.0-fold positive Mo                   ion.
  Species Mo: On-site basis accuracy parameter (for Gram-Schmidt orthonormalisation) not specified.
  Using default value basis_acc =  0.1000000E-03.
  Species Mo                  : Using default innermost maximum threshold i_radial=  2 for radial functions.
  Species Mo                  : Default cutoff onset for free atom density etc. : 0.35000000E+01 AA.
  Species Mo                  : Basic radial grid will be enhanced according to radial_multiplier =   1, to contain    59 grid points.

  Reading configuration options for species S                   .
  | Found nuclear charge :  16.0000
  | Found atomic mass :    32.064999999999998      amu
  | Found l_max for Hartree potential  :   4
  | Found cutoff potl. onset [A], width [A], scale factor :    3.50000    1.50000    1.00000
  | Threshold for basis-dependent cutoff potential is   0.100000E-03
  | Found data for basic radial integration grid :    44 points, outermost radius =    5.000 A
  | Found multiplier for basic radial grid :   1
  | Found angular grid specification: user-specified.
  | Specified grid contains     4 separate shells.
  | Check grid settings after all constraints further below.
  | Found free-atom valence shell :  3 s   2.000
  | Found free-atom valence shell :  3 p   4.000
  | Found free-ion valence shell :  3 s   1.000
  | Found free-ion valence shell :  3 p   3.000
  | Found ionic basis function :  3 d , default cutoff radius.
  | Found hydrogenic basis function :  2 p   1.800
  | Found hydrogenic basis function :  4 f   7.000
  | Found ionic basis function :  3 s , default cutoff radius.
  Species S                   : Missing cutoff potential type.
  Defaulting to exp(1/x)/(1-x)^2 type cutoff potential.
  Species S : No 'logarithmic' tag. Using default grid for free atom:
  | Default logarithmic grid data [bohr] : 0.1000E-03 0.1000E+03 0.1012E+01
  | Will include ionic basis functions of  2.0-fold positive S                    ion.
  Species S : On-site basis accuracy parameter (for Gram-Schmidt orthonormalisation) not specified.
  Using default value basis_acc =  0.1000000E-03.
  Species S                   : Using default innermost maximum threshold i_radial=  2 for radial functions.
  Species S                   : Default cutoff onset for free atom density etc. : 0.35000000E+01 AA.
  Species S                   : Basic radial grid will be enhanced according to radial_multiplier =   1, to contain    44 grid points.

  Finished reading input file 'control.in'.

------------------------------------------------------------


------------------------------------------------------------
          Reading geometry description geometry.in.
------------------------------------------------------------
  Homogeneous electric field specified. Values:  0.000000E+00  0.000000E+00  0.100000E+00
  | The smallest distance between any two atoms is         2.41384996 AA.
  | The first atom of this pair is atom number                      2 .
  | The second atom of this pair is atom number                     1 .
  | Wigner-Seitz cell of the first atom image           0    -1     1 .
  | (The Wigner-Seitz cell of the second atom is 0 0 0  by definition.)

  Symmetry information by spglib:
  | Precision set to  0.1E-04
  | Number of Operations  : 12
  | Space group           : 187
  | International         : P-6m2
  | Schoenflies           : D3h^1
  Input structure read successfully.
  The structure contains        3 atoms,  and a total of         74.000 electrons.

  Input geometry:
  | Unit cell:
  |        3.16000000        0.00000000        0.00000000
  |       -1.58000000        2.73664028        0.00000000
  |        0.00000000        0.00000000      100.00000000
  | Atomic structure:
  |       Atom                x [A]            y [A]            z [A]
  |    1: Species Mo            0.00000000        1.82442685       50.00000000
  |    2: Species S             1.58000000        0.91221343       51.58055000
  |    3: Species S             1.58000000        0.91221343       48.41945000

  Lattice parameters for 3D lattice (in Angstroms) :     3.160000    3.160000  100.000000
  Angle(s) between unit vectors (in degrees)       :    90.000000   90.000000  120.000000


  Quantities derived from the lattice vectors:
  | Reciprocal lattice vector 1:  1.988350  1.147974  0.000000
  | Reciprocal lattice vector 2:  0.000000  2.295949  0.000000
  | Reciprocal lattice vector 3:  0.000000  0.000000  0.062832
  | Unit cell volume                               :   0.864778E+03  A^3

  Fractional coordinates:
                         L1                L2                L3
       atom_frac         0.33333333        0.66666667        0.50000000  Mo
       atom_frac         0.66666667        0.33333333        0.51580550  S
       atom_frac         0.66666667        0.33333333        0.48419450  S


  Finished reading input file 'control.in'.


------------------------------------------------------------
          Reading geometry description geometry.in.
------------------------------------------------------------

  Consistency checks for the contents of control.in are next.

  MPI_IN_PLACE appears to work with this MPI implementation.
  | Keeping use_mpi_in_place .true. (see manual).
  Target number of points in a grid batch is not set. Defaulting to  100
  Method for grid partitioning is not set. Defaulting to parallel hash+maxmin partitioning.
  Batch size limit is not set. Defaulting to    200
  By default, will store active basis functions for each batch.
  If in need of memory, prune_basis_once .false. can be used to disable this option.
  communication_type for Hartree potential was not specified.
  Defaulting to calc_hartree .
  Defaulting to Pulay charge density mixer.
  Pulay mixer: Number of relevant iterations not set.
  Defaulting to    8 iterations.
  Pulay mixer: Number of initial linear mixing iterations not set.
  Defaulting to    0 iterations.
  Work space size for distributed Hartree potential not set.
  Defaulting to   0.200000E+03 MB.
  Algorithm-dependent basis array size parameters:
  | n_max_pulay                         :        8
  Presetting      1001 iterations before the initial mixing cycle
  is restarted anyway using the sc_init_iter criterion / keyword.
  Presetting a factor      1.000 between actual scf density residual
  and density convergence criterion sc_accuracy_rho below which sc_init_iter
  takes no effect.
  Calculation of forces was not defined in control.in. No forces will be calculated.
  Geometry relaxation not requested: no relaxation will be performed.
  No accuracy limit for integral partition fn. given. Defaulting to  0.1000E-14.
  No threshold value for u(r) in integrations given. Defaulting to  0.1000E-05.
  No accuracy for occupation numbers given. Defaulting to  0.1000E-12.
  No threshold value for occupation numbers given. Defaulting to  0.0000E+00.
  No accuracy for fermi level given. Defaulting to  0.1000E-19.
  Maximum # of iterations to find E_F not set. Defaulting to  200.
  Preferred method for the eigenvalue solver ('KS_method') not specified in 'control.in'.
  Defaulting to serial version, LAPACK (via ELSI), since more k-points than CPUs available.
  Will not use alltoall communication since running on < 1024 CPUs.
  Threshold for basis singularities not set.
  Default threshold for basis singularities:  0.1000E-04
  partition_type (choice of integration weights) for integrals was not specified.
  | Using a version of the partition function of Stratmann and coworkers ('stratmann_sparse').
  | At each grid point, the set of atoms used to build the partition table is smoothly restricted to
  | only those atoms whose free-atom density would be non-zero at that grid point.
  Partitioning for Hartree potential was not defined. Using partition_type for integrals.
  | Adjusted default value of keyword multip_moments_threshold to:       0.10000000E-11
  | This value may affect high angular momentum components of the Hartree potential in periodic systems.
  Angular momentum expansion for Kerker preconditioner not set explicitly.
  | Using default value of   0
  No explicit requirement for turning off preconditioner.
  | By default, it will be turned off when the charge convergence reaches
  | sc_accuracy_rho  =   0.100000E-03
  No special mixing parameter while Kerker preconditioner is on.
  Using default: charge_mix_param =     0.0200.
  No q(lm)/r^(l+1) cutoff set for long-range Hartree potential.
  | Using default value of  0.100000E-09 .
  | Verify using the multipole_threshold keyword.
  Defaulting to new monopole extrapolation.
  Density update method: automatic selection selected.
  Using density matrix based charge density update.
  Using density matrix based charge density update.
  Using packed matrix style: index .
  Defaulting to use time-reversal symmetry for k-point grid.
  Charge integration errors on the 3D integration grid will be compensated
  by explicit normalization and distribution of residual charges.
  Use the "compensate_multipole_errors" flag to change this behaviour.
  Set 'collect_eigenvectors' to be '.true.' for all serial calculations. This is mandatory.
  Set 'collect_eigenvectors' to be '.true.' for KS_method lapack_fast and serial.

  Consistency checks for the contents of geometry.in are next.


  Range separation radius for Ewald summation (hartree_convergence_parameter):      5.00000000 bohr.
  Number of empty states per atom not set in control.in - providing a guess from actual geometry.
  | Total number of empty states used during s.c.f. cycle:       12
  If you use a very high smearing, use empty_states (per atom!) in control.in to increase this value.

  Structure-dependent array size parameters: 
  | Maximum number of distinct radial functions  :       24
  | Maximum number of basis functions            :       99
  | Number of Kohn-Sham states (occupied + empty):       49
------------------------------------------------------------
 Electric fields in periodic systems require setting vacuum level
 Vacuum level will be determined automatically.
 Determine position of vacuum level automatically
 **WARNING** : This feature is experimental and still requires some testing
 **PLEASE ** : If you see it fail, please report.
 Vacuum level determined:
 set_vacuum_level    100.00000000000000

------------------------------------------------------------
          Preparing all fixed parts of the calculation.
------------------------------------------------------------
  Determining machine precision:
     2.2250738585072014E-308
  Setting up grids for atomic and cluster calculations.

  Creating wave function, potential, and density for free atoms.

  Species: Mo

  List of occupied orbitals and eigenvalues:
    n    l              occ      energy [Ha]    energy [eV]
    1    0           2.0000      -745.333848    -20281.5659
    2    0           2.0000      -103.277699     -2810.3292
    3    0           2.0000       -17.506203      -476.3680
    4    0           2.0000        -2.348313       -63.9008
    5    0           1.0000        -0.135274        -3.6810
    2    1           6.0000       -92.298078     -2511.5585
    3    1           6.0000       -13.925523      -378.9328
    4    1           6.0000        -1.398018       -38.0420
    3    2          10.0000        -8.108532      -220.6444
    4    2           5.0000        -0.123864        -3.3705


  Species: S

  List of occupied orbitals and eigenvalues:
    n    l              occ      energy [Ha]    energy [eV]
    1    0           2.0000       -88.678258     -2413.0582
    2    0           2.0000        -7.779365      -211.6873
    3    0           2.0000        -0.631865       -17.1939
    2    1           6.0000        -5.749610      -156.4549
    3    1           4.0000        -0.255301        -6.9471


  Adding cutoff potential to free-atom effective potential.
  Creating fixed part of basis set: Ionic, confined, hydrogenic.

  Mo                   ion:

  List of free ionic orbitals and eigenvalues:
    n    l      energy [Ha]    energy [eV]
    1    0      -746.048685    -20301.0176
    2    0      -103.980912     -2829.4646
    3    0       -18.206601      -495.4268
    4    0        -3.040545       -82.7374
    2    1       -93.001013     -2530.6863
    3    1       -14.625827      -397.9890
    4    1        -2.084855       -56.7318
    3    2        -8.808854      -239.7011
    4    2        -0.765435       -20.8285


  List of ionic basis orbitals and eigenvalues:
    n    l      energy [Ha]    energy [eV]    outer radius [A]
    5    1        -0.462835       -12.5944       4.598077
    5    0        -0.649837       -17.6830       4.542208


  Mo                   hydrogenic:

  List of hydrogenic basis orbitals: 
    n    l      effective z      eigenvalue [eV]  inner max. [A]     outer max. [A]     outer radius [A]   
    4    3         8.400000       -60.0006           1.009788           1.009788           4.119012
    3    2         2.800000       -11.6571           1.666898           1.666898           4.598077
    5    4        12.000000       -78.3684           1.100005           1.100005           4.119012


  S                    ion:

  List of free ionic orbitals and eigenvalues:
    n    l      energy [Ha]    energy [eV]
    1    0       -89.703778     -2440.9640
    2    0        -8.775428      -238.7916
    3    0        -1.470343       -40.0101
    2    1        -6.747660      -183.6132
    3    1        -1.048627       -28.5346


  List of ionic basis orbitals and eigenvalues:
    n    l      energy [Ha]    energy [eV]    outer radius [A]
    3    2        -0.495221       -13.4756       4.539062
    3    0        -1.470325       -40.0096       3.642502


  S                    hydrogenic:

  List of hydrogenic basis orbitals: 
    n    l      effective z      eigenvalue [eV]  inner max. [A]     outer max. [A]     outer radius [A]   
    2    1         1.800000       -10.9749           1.168531           1.168531           4.594893
    4    3         7.000000       -41.6658           1.212182           1.212182           4.539062

  Creating atomic-like basis functions for current effective potential.

  Species Mo                  :

  List of atomic basis orbitals and eigenvalues:
    n    l      energy [Ha]    energy [eV]    outer radius [A]
    1    0      -745.333848    -20281.5659       0.247552
    2    0      -103.277699     -2810.3292       0.682864
    3    0       -17.506203      -476.3680       1.626637
    4    0        -2.348313       -63.9008       4.019524
    5    0        -0.135274        -3.6810       4.598077
    2    1       -92.298078     -2511.5585       0.699766
    3    1       -13.925523      -378.9328       1.793761
    4    1        -1.398018       -38.0420       4.272881
    3    2        -8.108532      -220.6444       2.181285
    4    2        -0.123864        -3.3705       4.542208


  Species S                   :

  List of atomic basis orbitals and eigenvalues:
    n    l      energy [Ha]    energy [eV]    outer radius [A]
    1    0       -88.678258     -2413.0582       0.682391
    2    0        -7.779365      -211.6873       2.289014
    3    0        -0.631865       -17.1939       4.483910
    2    1        -5.749610      -156.4549       2.555240
    3    1        -0.255301        -6.9471       4.539062

  Assembling full basis from fixed parts.
  | Species Mo :   atomic orbital   1 s accepted.
  | Species Mo :   atomic orbital   2 s accepted.
  | Species Mo :   atomic orbital   3 s accepted.
  | Species Mo :   atomic orbital   4 s accepted.
  | Species Mo :    ionic orbital   5 s accepted.
  | Species Mo :   atomic orbital   5 s accepted.
  | Species Mo :   atomic orbital   2 p accepted.
  | Species Mo :   atomic orbital   3 p accepted.
  | Species Mo :   atomic orbital   4 p accepted.
  | Species Mo :    ionic orbital   5 p accepted.
  | Species Mo :   atomic orbital   3 d accepted.
  | Species Mo :   atomic orbital   4 d accepted.
  | Species Mo :    hydro orbital   3 d accepted.
  | Species Mo :    hydro orbital   4 f accepted.
  | Species Mo :    hydro orbital   5 g accepted.
  | Species S :   atomic orbital   1 s accepted.
  | Species S :   atomic orbital   2 s accepted.
  | Species S :    ionic orbital   3 s accepted.
  | Species S :   atomic orbital   3 s accepted.
  | Species S :   atomic orbital   2 p accepted.
  | Species S :   atomic orbital   3 p accepted.
  | Species S :    hydro orbital   2 p accepted.
  | Species S :    ionic orbital   3 d accepted.
  | Species S :    hydro orbital   4 f accepted.

  Basis size parameters after reduction:
  | Total number of radial functions:       24
  | Total number of basis functions :       99

  Per-task memory consumption for arrays in subroutine allocate_ext:
  |           8.826620MB.
  Testing on-site integration grid accuracy.
  |  Species  Function  <phi|h_atom|phi> (log., in eV)  <phi|h_atom|phi> (rad., in eV)
           1        1             -20281.5659320674             -20281.5323559147 ***
           1        2              -2810.3291693068              -2810.3286854703
           1        3               -476.3680236302               -476.3680079684
           1        4                -63.9008496011                -63.9008488153
           1        5                 -3.1589031744                 -3.1626118517
           1        6                  6.6219449585                  6.4059388831 ***
           1        7              -2511.5584946714              -2511.5584926613
           1        8               -378.9327641188               -378.9327633055
           1        9                -38.0420009841                -38.0420006865
           1       10                  0.5956589048                  0.5771251364
           1       11               -220.6443822950               -220.6443820003
           1       12                 -3.3734068167                 -3.3762615058
           1       13                  8.2366836575                  8.1872404255 ***
           1       14                 23.6292330546                 23.6292104921
           1       15                 50.4663656830                 50.4663435448
           2       16              -2413.0581659109              -2413.0570554886
           2       17               -211.6872814127               -211.6872738937
           2       18                -16.9208611991                -16.9208255642
           2       19                  7.5845503345                  7.5614252779
           2       20               -156.4548540501               -156.4548540107
           2       21                 -6.9485729304                 -6.9508389945
           2       22                  7.5803076288                  7.5258504832 ***
           2       23                  6.1173006980                  6.1127563631
           2       24                 24.7512183535                 24.7503558869
 * Note: Onsite integrals marked "***" above are less accurate than
 * onsite_accuracy_threshold =    0.03000 eV. Usually, this is harmless.
 * However, one integral did have a negative value. This integral could be important.
 * When in doubt, tighten the "radial" and/or "radial_multiplier" flags to check.

  Preparing densities etc. for the partition functions (integrals / Hartree potential).

  Preparations completed.
  max(cpu_time)          :      0.228 s.
  Wall clock time (cpu1) :      0.229 s.
------------------------------------------------------------

------------------------------------------------------------
          Begin self-consistency loop: Initialization.

          Date     :  20210520, Time     :  200620.728
------------------------------------------------------------

  Initializing index lists of integration centers etc. from given atomic structure:
  Mapping all atomic coordinates to central unit cell.

  Initializing the k-points
  Using symmetry for reducing the k-points
  | k-points reduced from:       49 to       25
  | Number of k-points                             :        25
  The eigenvectors in the calculations are COMPLEX.
  | K-points in task   0:        12
  | K-points in task   1:        13
  | Number of basis functions in the Hamiltonian integrals :      2480
  | Number of basis functions in a single unit cell        :        99
  | Number of centers in hartree potential         :       677
  | Number of centers in hartree multipole         :       260
  | Number of centers in electron density summation:       220
  | Number of centers in basis integrals           :       220
  | Number of centers in integrals                 :        98
  | Number of centers in hamiltonian               :       220
  | Consuming         48 KiB for k_phase.
  | Number of super-cells (origin) [n_cells]                     :         675
  | Number of super-cells (after PM_index) [n_cells]             :         124
  | Number of super-cells in hamiltonian [n_cells_in_hamiltonian]:         124
  | Size of matrix packed + index [n_hamiltonian_matrix_size] :      114166
  | Estimated reciprocal-space cutoff momentum G_max:         1.84432723 bohr^-1 .
  | Reciprocal lattice points for long-range Hartree potential:     608
  Partitioning the integration grid into batches with parallel hashing+maxmin method.
  | Number of batches:      264
  | Maximal batch size:     196
  | Minimal batch size:      49
  | Average batch size:      96.341
  | Standard deviation of batch sizes:      15.622

  Integration load balanced across     2 MPI tasks.
  Work distribution over tasks is as follows:
  Task     0 has      12742 integration points.
  Task     1 has      12692 integration points.
  Initializing partition tables, free-atom densities, potentials, etc. across the integration grid (initialize_grid_storage).
  | initialize_grid_storage: Actual outermost partition radius vs. multipole_radius_free
  | (-- VB: in principle, multipole_radius_free should be larger, hence this output)
  | Species        1: Confinement radius =              4.999999999999999 AA, multipole_radius_free =              5.008883881164426 AA.
  | Species        1: outer_partition_radius set to              5.008883881164426 AA .
  | Species        2: Confinement radius =              4.999999999999999 AA, multipole_radius_free =              5.005414751018925 AA.
  | Species        2: outer_partition_radius set to              5.005414751018925 AA .
  | The sparse table of interatomic distances needs        168.04 kbyte instead of       387.20 kbyte of memory.
  | Net number of integration points:    25434
  | of which are non-zero points    :    22916
  | Numerical average free-atom electrostatic potential    :     -1.10293248 eV
  Renormalizing the initial density to the exact electron count on the 3D integration grid.
  | Initial density: Formal number of electrons (from input files) :      74.0000000000
  | Integrated number of electrons on 3D grid     :      74.0000248976
  | Charge integration error                      :       0.0000248976
  | Normalization factor for density and gradient :       0.9999996635
  Renormalizing the free-atom superposition density to the exact electron count on the 3D integration grid.
  | Formal number of electrons (from input files) :      74.0000000000
  | Integrated number of electrons on 3D grid     :      74.0000248976
  | Charge integration error                      :       0.0000248976
  | Normalization factor for density and gradient :       0.9999996635
  Obtaining max. number of non-zero basis functions in each batch (get_n_compute_maxes).
  | Maximal number of non-zero basis functions:      738 in task     0
  | Maximal number of non-zero basis functions:      765 in task     1
  Allocating        0.888 MB for KS_eigenvector_complex
  Integrating Hamiltonian matrix: batch-based integration.
  Time summed over all CPUs for integration: real work        1.253 s, elapsed        1.268 s
  Integrating overlap matrix.
  Time summed over all CPUs for integration: real work        0.691 s, elapsed        0.699 s
  Decreasing sparse matrix size:
  | Tolerance:  0.1000E-12
  Hamiltonian matrix
  | Array has    98530 nonzero elements out of   114166 elements
  | Sparsity factor is 0.137
  Overlap matrix
  | Array has    84868 nonzero elements out of   114166 elements
  | Sparsity factor is 0.257
  New size of hamiltonian matrix:       99356

  Updating Kohn-Sham eigenvalues and eigenvectors using ELSI and the (modified) LAPACK eigensolver.
  Singularity check in k-point 2, task 0 (analysis for other k-points/tasks may follow below):
  Overlap matrix is not singular
  | Lowest and highest eigenvalues :  0.1855E-02,  0.7384E+01
  Finished singularity check of overlap matrix
  | Time :     0.001 s
  Starting LAPACK eigensolver
  Finished Cholesky decomposition
  | Time :     0.000 s
  Finished transformation to standard eigenproblem
  | Time :     0.000 s
  Finished solving standard eigenproblem
  | Time :     0.001 s
  Finished back-transformation of eigenvectors
  | Time :     0.000 s

  Obtaining occupation numbers and chemical potential using ELSI.
  | Chemical potential (Fermi level):    -2.14303373 eV
  Writing Kohn-Sham eigenvalues.
  K-point:       1 at    0.000000    0.000000    0.000000 (in units of recip. lattice)

  State    Occupation    Eigenvalue [Ha]    Eigenvalue [eV]
      1       2.00000        -745.345145       -20281.87332
      2       2.00000        -103.289923        -2810.66181
      3       2.00000         -92.310322        -2511.89167
      4       2.00000         -92.310322        -2511.89167
      5       2.00000         -92.310319        -2511.89159
      6       2.00000         -88.694979        -2413.51318
      7       2.00000         -88.339103        -2403.82929
      8       2.00000         -17.520021         -476.74404
      9       2.00000         -13.939417         -379.31084
     10       2.00000         -13.939417         -379.31084
     11       2.00000         -13.939392         -379.31015
     12       2.00000          -8.122381         -221.02123
     13       2.00000          -8.122381         -221.02122
     14       2.00000          -8.122378         -221.02115
     15       2.00000          -8.122378         -221.02114
     16       2.00000          -8.122335         -221.01998
     17       2.00000          -7.798904         -212.21897
     18       2.00000          -7.443026         -202.53505
     19       2.00000          -5.769134         -156.98613
     20       2.00000          -5.768673         -156.97358
     21       2.00000          -5.768673         -156.97358
     22       2.00000          -5.413276         -147.30274
     23       2.00000          -5.412807         -147.28996
     24       2.00000          -5.412807         -147.28996
     25       2.00000          -2.375812          -64.64912
     26       2.00000          -1.432293          -38.97466
     27       2.00000          -1.423269          -38.72911
     28       2.00000          -1.423268          -38.72910
     29       2.00000          -0.738258          -20.08902
     30       2.00000          -0.453146          -12.33073
     31       2.00000          -0.359549           -9.78381
     32       2.00000          -0.285384           -7.76569
     33       2.00000          -0.285383           -7.76567
     34       2.00000          -0.211333           -5.75066
     35       2.00000          -0.180910           -4.92282
     36       2.00000          -0.180908           -4.92277
     37       1.98866          -0.085335           -2.32208
     38       1.98866          -0.085334           -2.32207
     39       0.00000          -0.028155           -0.76613
     40       0.00000           0.064462            1.75411
     41       0.00000           0.124089            3.37664
     42       0.00000           0.130179            3.54234
     43       0.00000           0.130197            3.54283
     44       0.00000           0.241986            6.58477
     45       0.00000           0.242415            6.59644
     46       0.00000           0.242434            6.59696
     47       0.00000           0.346910            9.43990
     48       0.00000           0.346915            9.44004
     49       0.00000           0.372098           10.12529

  What follows are estimated values for band gap, HOMO, LUMO, etc.
  | They are estimated on a discrete k-point grid and not necessarily exact.
  | For converged numbers, create a DOS and/or band structure plot on a denser k-grid.

  Highest occupied state (VBM) at     -2.32206783 eV (relative to internal zero)
  | Occupation number:      1.98865616
  | K-point:       1 at    0.000000    0.000000    0.000000 (in units of recip. lattice)

  Lowest unoccupied state (CBM) at    -2.12992815 eV (relative to internal zero)
  | Occupation number:      0.85296162
  | K-point:       2 at    0.000000    0.142857    0.000000 (in units of recip. lattice)

  ESTIMATED overall HOMO-LUMO gap:      0.19213968 eV between HOMO at k-point 1 and LUMO at k-point 2
  | This appears to be an indirect band gap.
  | Smallest direct gap :      0.30782911 eV for k_point 3 at    0.000000    0.285714    0.000000 (in units of recip. lattice)
  However, this system has fractional occupation numbers. Since we use a finite k-point grid,
  this material is metallic within the approximate finite broadening function (occupation_type)
  applied to determine the occupation numbers.
  Calculating total energy contributions from superposition of free atom densities.

  Total energy components:
  | Sum of eigenvalues            :       -2921.58288751 Ha      -79500.31530064 eV
  | XC energy correction          :        -175.67040972 Ha       -4780.23506416 eV
  | XC potential correction       :         228.41052747 Ha        6215.36668675 eV
  | Free-atom electrostatic energy:       -2013.09837124 Ha      -54779.19381611 eV
  | Hartree energy correction     :          -0.00000000 Ha          -0.00000000 eV
  | Ionic    embedding energy     :          -5.87989193 Ha        -160.00000001 eV
  | Density  embedding energy     :           5.97392792 Ha         162.55884953 eV
  | Nonlocal embedding energy     :           0.00000000 Ha           0.00000000 eV
  | External embedding energy     :           0.09403599 Ha           2.55884951 eV
  | Entropy correction            :          -0.00032091 Ha          -0.00873252 eV
  | ---------------------------
  | Total energy                  :       -4887.91506892 Ha     -133006.93634370 eV
  | Total energy, T -> 0          :       -4887.91538983 Ha     -133006.94507622 eV  <-- do not rely on this value for anything but (periodic) metals
  | Electronic free energy        :       -4887.91571075 Ha     -133006.95380874 eV

  Total energy including external embedding contributions:
  | Total energy + embedding      :       -4887.82103293 Ha     -133004.37749418 eV
  | Total energy + embedding, T->0:       -4887.82135384 Ha     -133004.38622670 eV  <-- do not rely on this value for anything but (periodic) metals
  | Elec. free energy + embedding :       -4887.82167476 Ha     -133004.39495923 eV

  Derived energy quantities:
  | Kinetic energy                :        5023.99397463 Ha      136709.83176922 eV
  | Electrostatic energy          :       -9730.26470591 Ha     -264773.97419923 eV
  | Energy correction for multipole
  | error in Hartree potential    :           0.00000000 Ha           0.00000000 eV
  | Sum of eigenvalues per atom                           :      -26500.10510021 eV
  | Total energy (T->0) per atom                          :      -44335.64835874 eV  <-- do not rely on this value for anything but (periodic) metals
  | Electronic free energy per atom                       :      -44335.65126958 eV
  Initialize hartree_potential_storage
  Max. number of atoms included in rho_multipole:            3

  End scf initialization - timings             :  max(cpu_time)    wall_clock(cpu1)
  | Time for scf. initialization               :        6.288 s           6.288 s
  | Boundary condition initialization          :        4.998 s           4.998 s
  | Integration                                :        0.986 s           0.986 s
  | Solution of K.-S. eqns.                    :        0.044 s           0.044 s
  | Grid partitioning                          :        0.061 s           0.061 s
  | Preloading free-atom quantities on grid    :        0.164 s           0.162 s
  | Free-atom superposition energy             :        0.031 s           0.031 s
  | Total energy evaluation                    :        0.000 s           0.001 s

  Partial memory accounting:
  | Current value for overall tracked memory usage:
  |   Minimum:        2.784 MB (on task 0)
  |   Maximum:        2.858 MB (on task 1)
  |   Average:        2.821 MB
  | Peak value for overall tracked memory usage:
  |   Minimum:       10.550 MB (on task 0 after allocating wave)
  |   Maximum:       11.055 MB (on task 1 after allocating wave)
  |   Average:       10.802 MB
  | Largest tracked array allocation so far:
  |   Minimum:        4.155 MB (hamiltonian_shell on task 0)
  |   Maximum:        4.465 MB (hamiltonian_shell on task 1)
  |   Average:        4.310 MB
  Note:  These values currently only include a subset of arrays which are explicitly tracked.
  The "true" memory usage will be greater.
------------------------------------------------------------
  Evaluating new KS density using the density matrix
  Evaluating density matrix
  Time summed over all CPUs for getting density from density matrix: real work        2.262 s, elapsed        2.276 s
  Integration grid: deviation in total charge (<rho> - N_e) =  -3.126388E-13

  Time for density update prior                :  max(cpu_time)    wall_clock(cpu1)
  | self-consistency iterative process         :        1.143 s           1.143 s

------------------------------------------------------------
          Begin self-consistency iteration #    1

  Date     :  20210520, Time     :  200628.159
------------------------------------------------------------
  Pulay mixing of updated and previous charge densities.
  Renormalizing the density to the exact electron count on the 3D integration grid.
  | Formal number of electrons (from input files) :      74.0000000000
  | Integrated number of electrons on 3D grid     :      74.0000649775
  | Charge integration error                      :       0.0000649775
  | Normalization factor for density and gradient :       0.9999991219

  Evaluating partitioned Hartree potential by multipole expansion.
  | Original multipole sum: apparent total charge =   0.540083E-12
  | Sum of charges compensated after spline to logarithmic grids =   0.127965E-05
  | Analytical far-field extrapolation by fixed multipoles:
  | Hartree multipole sum: apparent total charge =   0.540062E-12
  Summing up the Hartree potential.
  Time summed over all CPUs for potential: real work        0.850 s, elapsed        0.850 s
  | RMS charge density error from multipole expansion :   0.236985E-03
  | Average real-space part of the electrostatic potential :      0.00001740 eV

  Integrating Hamiltonian matrix: batch-based integration.
  Time summed over all CPUs for integration: real work        1.061 s, elapsed        1.074 s

  Updating Kohn-Sham eigenvalues and eigenvectors using ELSI and the (modified) LAPACK eigensolver.
  Starting LAPACK eigensolver
  Finished Cholesky decomposition
  | Time :     0.001 s
  Finished transformation to standard eigenproblem
  | Time :     0.001 s
  Finished solving standard eigenproblem
  | Time :     0.002 s
  Finished back-transformation of eigenvectors
  | Time :     0.000 s

  Obtaining occupation numbers and chemical potential using ELSI.
  | Chemical potential (Fermi level):    -1.80211872 eV
  Writing Kohn-Sham eigenvalues.
  K-point:       1 at    0.000000    0.000000    0.000000 (in units of recip. lattice)

  State    Occupation    Eigenvalue [Ha]    Eigenvalue [eV]
      1       2.00000        -745.325742       -20281.34533
      2       2.00000        -103.270910        -2810.14445
      3       2.00000         -92.291238        -2511.37237
      4       2.00000         -92.291209        -2511.37157
      5       2.00000         -92.291209        -2511.37157
      6       2.00000         -88.661617        -2412.60534
      7       2.00000         -88.370576        -2404.68573
      8       2.00000         -17.502428         -476.26530
      9       2.00000         -13.921894         -378.83401
     10       2.00000         -13.921769         -378.83061
     11       2.00000         -13.921769         -378.83061
     12       2.00000          -8.104722         -220.54070
     13       2.00000          -8.104722         -220.54070
     14       2.00000          -8.104705         -220.54024
     15       2.00000          -8.104610         -220.53766
     16       2.00000          -8.104610         -220.53766
     17       2.00000          -7.766874         -211.34740
     18       2.00000          -7.471189         -203.30140
     19       2.00000          -5.737042         -156.11286
     20       2.00000          -5.736490         -156.09782
     21       2.00000          -5.736490         -156.09782
     22       2.00000          -5.441695         -148.07607
     23       2.00000          -5.441294         -148.06515
     24       2.00000          -5.441294         -148.06515
     25       2.00000          -2.360590          -64.23493
     26       2.00000          -1.417952          -38.58444
     27       2.00000          -1.408208          -38.31928
     28       2.00000          -1.408207          -38.31927
     29       2.00000          -0.710396          -19.33086
     30       2.00000          -0.458256          -12.46979
     31       2.00000          -0.348402           -9.48049
     32       2.00000          -0.262911           -7.15418
     33       2.00000          -0.262911           -7.15418
     34       2.00000          -0.194917           -5.30397
     35       2.00000          -0.168200           -4.57696
     36       2.00000          -0.168198           -4.57690
     37       0.92593          -0.065985           -1.79554
     38       0.92549          -0.065984           -1.79551
     39       0.00000          -0.037897           -1.03124
     40       0.00000           0.080764            2.19769
     41       0.00000           0.119968            3.26450
     42       0.00000           0.119984            3.26492
     43       0.00000           0.150877            4.10557
     44       0.00000           0.252566            6.87267
     45       0.00000           0.260209            7.08065
     46       0.00000           0.260230            7.08122
     47       0.00000           0.367930           10.01187
     48       0.00000           0.369150           10.04507
     49       0.00000           0.369159           10.04534

  What follows are estimated values for band gap, HOMO, LUMO, etc.
  | They are estimated on a discrete k-point grid and not necessarily exact.
  | For converged numbers, create a DOS and/or band structure plot on a denser k-grid.

  Highest occupied state (VBM) at     -2.00384078 eV (relative to internal zero)
  | Occupation number:      1.99566615
  | K-point:       2 at    0.000000    0.142857    0.000000 (in units of recip. lattice)

  Lowest unoccupied state (CBM) at    -1.79554474 eV (relative to internal zero)
  | Occupation number:      0.92592732
  | K-point:       1 at    0.000000    0.000000    0.000000 (in units of recip. lattice)

  ESTIMATED overall HOMO-LUMO gap:      0.20829604 eV between HOMO at k-point 2 and LUMO at k-point 1
  | This appears to be an indirect band gap.
  | Smallest direct gap :      0.38323160 eV for k_point 2 at    0.000000    0.142857    0.000000 (in units of recip. lattice)
  However, this system has fractional occupation numbers. Since we use a finite k-point grid,
  this material is metallic within the approximate finite broadening function (occupation_type)
  applied to determine the occupation numbers.

  Total energy components:
  | Sum of eigenvalues            :       -2920.67542518 Ha      -79475.62199440 eV
  | XC energy correction          :        -175.67529944 Ha       -4780.36812014 eV
  | XC potential correction       :         228.41707189 Ha        6215.54476965 eV
  | Free-atom electrostatic energy:       -2013.09837124 Ha      -54779.19381611 eV
  | Hartree energy correction     :          -0.78495008 Ha         -21.35957847 eV
  | Ionic    embedding energy     :          -5.87989193 Ha        -160.00000001 eV
  | Density  embedding energy     :           5.96166824 Ha         162.22524684 eV
  | Nonlocal embedding energy     :           0.00000000 Ha           0.00000000 eV
  | External embedding energy     :           0.08177632 Ha           2.22524683 eV
  | Entropy correction            :          -0.00005810 Ha          -0.00158089 eV
  | ---------------------------
  | Total energy                  :       -4887.77864229 Ha     -133003.22398632 eV
  | Total energy, T -> 0          :       -4887.77870039 Ha     -133003.22556721 eV  <-- do not rely on this value for anything but (periodic) metals
  | Electronic free energy        :       -4887.77875849 Ha     -133003.22714809 eV

  Total energy including external embedding contributions:
  | Total energy + embedding      :       -4887.69686598 Ha     -133000.99873949 eV
  | Total energy + embedding, T->0:       -4887.69692407 Ha     -133001.00032038 eV  <-- do not rely on this value for anything but (periodic) metals
  | Elec. free energy + embedding :       -4887.69698217 Ha     -133001.00190126 eV

  Derived energy quantities:
  | Kinetic energy                :        5024.17510984 Ha      136714.76070910 eV
  | Electrostatic energy          :       -9730.31678445 Ha     -264775.39132843 eV
  | Energy correction for multipole
  | error in Hartree potential    :           0.00004535 Ha           0.00123404 eV
  | Sum of eigenvalues per atom                           :      -26491.87399813 eV
  | Total energy (T->0) per atom                          :      -44334.40852240 eV  <-- do not rely on this value for anything but (periodic) metals
  | Electronic free energy per atom                       :      -44334.40904936 eV
  Evaluating new KS density using the density matrix
  Evaluating density matrix
  Time summed over all CPUs for getting density from density matrix: real work        2.446 s, elapsed        2.456 s
  Integration grid: deviation in total charge (<rho> - N_e) =  -3.410605E-13

  Self-consistency convergence accuracy:
  | Change of charge density      :  0.5243E+00
  | Change of sum of eigenvalues  :  0.2469E+02 eV
  | Change of total energy        :  0.3379E+01 eV


------------------------------------------------------------
  End self-consistency iteration #     1       :  max(cpu_time)    wall_clock(cpu1)
  | Time for this iteration                    :        2.490 s           2.490 s
  | Charge density update                      :        1.234 s           1.234 s
  | Density mixing & preconditioning           :        0.246 s           0.246 s
  | Hartree multipole update                   :        0.001 s           0.001 s
  | Hartree multipole summation                :        0.432 s           0.433 s
  | Integration                                :        0.539 s           0.539 s
  | Solution of K.-S. eqns.                    :        0.035 s           0.035 s
  | Total energy evaluation                    :        0.002 s           0.000 s

  Partial memory accounting:
  | Current value for overall tracked memory usage:
  |   Minimum:        2.784 MB (on task 0)
  |   Maximum:        2.858 MB (on task 1)
  |   Average:        2.821 MB
  | Peak value for overall tracked memory usage:
  |   Minimum:       13.561 MB (on task 0 after allocating gradient_basis_wave)
  |   Maximum:       14.187 MB (on task 1 after allocating gradient_basis_wave)
  |   Average:       13.874 MB
  | Largest tracked array allocation so far:
  |   Minimum:        4.155 MB (hamiltonian_shell on task 0)
  |   Maximum:        4.465 MB (hamiltonian_shell on task 1)
  |   Average:        4.310 MB
  Note:  These values currently only include a subset of arrays which are explicitly tracked.
  The "true" memory usage will be greater.
------------------------------------------------------------

------------------------------------------------------------
          Begin self-consistency iteration #    2

  Date     :  20210520, Time     :  200630.651
------------------------------------------------------------
  Pulay mixing of updated and previous charge densities.
  Renormalizing the density to the exact electron count on the 3D integration grid.
  | Formal number of electrons (from input files) :      74.0000000000
  | Integrated number of electrons on 3D grid     :      74.0000894610
  | Charge integration error                      :       0.0000894610
  | Normalization factor for density and gradient :       0.9999987911

  Evaluating partitioned Hartree potential by multipole expansion.
  | Original multipole sum: apparent total charge =  -0.111280E-12
  | Sum of charges compensated after spline to logarithmic grids =   0.564203E-05
  | Analytical far-field extrapolation by fixed multipoles:
  | Hartree multipole sum: apparent total charge =  -0.111280E-12
  Summing up the Hartree potential.
  Time summed over all CPUs for potential: real work        0.877 s, elapsed        0.877 s
  | RMS charge density error from multipole expansion :   0.143556E-02
  | Average real-space part of the electrostatic potential :      0.00009671 eV

  Integrating Hamiltonian matrix: batch-based integration.
  Time summed over all CPUs for integration: real work        1.102 s, elapsed        1.114 s

  Updating Kohn-Sham eigenvalues and eigenvectors using ELSI and the (modified) LAPACK eigensolver.
  Starting LAPACK eigensolver
  Finished Cholesky decomposition
  | Time :     0.000 s
  Finished transformation to standard eigenproblem
  | Time :     0.001 s
  Finished solving standard eigenproblem
  | Time :     0.001 s
  Finished back-transformation of eigenvectors
  | Time :     0.000 s

  Obtaining occupation numbers and chemical potential using ELSI.
  | Chemical potential (Fermi level):    -1.50757223 eV
  What follows are estimated values for band gap, HOMO, LUMO, etc.
  | They are estimated on a discrete k-point grid and not necessarily exact.
  | For converged numbers, create a DOS and/or band structure plot on a denser k-grid.

  Highest occupied state (VBM) at     -2.00278863 eV (relative to internal zero)
  | Occupation number:      2.00000000
  | K-point:       2 at    0.000000    0.142857    0.000000 (in units of recip. lattice)

  Lowest unoccupied state (CBM) at    -0.47353382 eV (relative to internal zero)
  | Occupation number:      0.00000000
  | K-point:      12 at    0.285714    0.428571    0.000000 (in units of recip. lattice)

  ESTIMATED overall HOMO-LUMO gap:      1.52925481 eV between HOMO at k-point 2 and LUMO at k-point 12
  | This appears to be an indirect band gap.
  | Smallest direct gap :      1.75695203 eV for k_point 25 at    0.857143    0.857143    0.000000 (in units of recip. lattice)
  The gap value is above 0.2 eV. Unless you are using a very sparse k-point grid,
  this system is most likely an insulator or a semiconductor.

  Total energy components:
  | Sum of eigenvalues            :       -2917.57427125 Ha      -79391.23530231 eV
  | XC energy correction          :        -175.69182554 Ha       -4780.81781827 eV
  | XC potential correction       :         228.43924622 Ha        6216.14816382 eV
  | Free-atom electrostatic energy:       -2013.09837124 Ha      -54779.19381611 eV
  | Hartree energy correction     :          -3.67634580 Ha        -100.03845908 eV
  | Ionic    embedding energy     :          -5.87989193 Ha        -160.00000001 eV
  | Density  embedding energy     :           5.91782053 Ha         161.03208994 eV
  | Nonlocal embedding energy     :           0.00000000 Ha           0.00000000 eV
  | External embedding energy     :           0.03792861 Ha           1.03208992 eV
  | Entropy correction            :          -0.00000000 Ha          -0.00000000 eV
  | ---------------------------
  | Total energy                  :       -4887.51938814 Ha     -132996.16932188 eV
  | Total energy, T -> 0          :       -4887.51938814 Ha     -132996.16932188 eV  <-- do not rely on this value for anything but (periodic) metals
  | Electronic free energy        :       -4887.51938814 Ha     -132996.16932188 eV

  Total energy including external embedding contributions:
  | Total energy + embedding      :       -4887.48145953 Ha     -132995.13723196 eV
  | Total energy + embedding, T->0:       -4887.48145953 Ha     -132995.13723196 eV  <-- do not rely on this value for anything but (periodic) metals
  | Elec. free energy + embedding :       -4887.48145953 Ha     -132995.13723196 eV

  Derived energy quantities:
  | Kinetic energy                :        5024.58079871 Ha      136725.80006504 eV
  | Electrostatic energy          :       -9730.49054078 Ha     -264780.11947872 eV
  | Energy correction for multipole
  | error in Hartree potential    :           0.00015974 Ha           0.00434680 eV
  | Sum of eigenvalues per atom                           :      -26463.74510077 eV
  | Total energy (T->0) per atom                          :      -44332.05644063 eV  <-- do not rely on this value for anything but (periodic) metals
  | Electronic free energy per atom                       :      -44332.05644063 eV
  Evaluating new KS density using the density matrix
  Evaluating density matrix
  Time summed over all CPUs for getting density from density matrix: real work        2.395 s, elapsed        2.414 s
  Integration grid: deviation in total charge (<rho> - N_e) =  -3.694822E-13

  Self-consistency convergence accuracy:
  | Change of charge density      :  0.4301E+00
  | Change of sum of eigenvalues  :  0.8439E+02 eV
  | Change of total energy        :  0.5862E+01 eV


------------------------------------------------------------
  End self-consistency iteration #     2       :  max(cpu_time)    wall_clock(cpu1)
  | Time for this iteration                    :        2.491 s           2.492 s
  | Charge density update                      :        1.212 s           1.212 s
  | Density mixing & preconditioning           :        0.240 s           0.240 s
  | Hartree multipole update                   :        0.001 s           0.002 s
  | Hartree multipole summation                :        0.446 s           0.446 s
  | Integration                                :        0.559 s           0.559 s
  | Solution of K.-S. eqns.                    :        0.032 s           0.032 s
  | Total energy evaluation                    :        0.001 s           0.001 s

  Partial memory accounting:
  | Current value for overall tracked memory usage:
  |   Minimum:        2.785 MB (on task 0)
  |   Maximum:        2.859 MB (on task 1)
  |   Average:        2.822 MB
  | Peak value for overall tracked memory usage:
  |   Minimum:       13.561 MB (on task 0 after allocating gradient_basis_wave)
  |   Maximum:       14.187 MB (on task 1 after allocating gradient_basis_wave)
  |   Average:       13.874 MB
  | Largest tracked array allocation so far:
  |   Minimum:        4.155 MB (hamiltonian_shell on task 0)
  |   Maximum:        4.465 MB (hamiltonian_shell on task 1)
  |   Average:        4.310 MB
  Note:  These values currently only include a subset of arrays which are explicitly tracked.
  The "true" memory usage will be greater.
------------------------------------------------------------

------------------------------------------------------------
          Begin self-consistency iteration #    3

  Date     :  20210520, Time     :  200633.145
------------------------------------------------------------
  Pulay mixing of updated and previous charge densities.
  Renormalizing the density to the exact electron count on the 3D integration grid.
  | Formal number of electrons (from input files) :      74.0000000000
  | Integrated number of electrons on 3D grid     :      73.9998486142
  | Charge integration error                      :      -0.0001513858
  | Normalization factor for density and gradient :       1.0000020458

  Evaluating partitioned Hartree potential by multipole expansion.
  | Original multipole sum: apparent total charge =   0.147771E-12
  | Sum of charges compensated after spline to logarithmic grids =   0.637946E-05
  | Analytical far-field extrapolation by fixed multipoles:
  | Hartree multipole sum: apparent total charge =   0.147586E-12
  Summing up the Hartree potential.
  Time summed over all CPUs for potential: real work        0.864 s, elapsed        0.867 s
  | RMS charge density error from multipole expansion :   0.215151E-02
  | Average real-space part of the electrostatic potential :      0.00012683 eV

  Integrating Hamiltonian matrix: batch-based integration.
  Time summed over all CPUs for integration: real work        1.128 s, elapsed        1.138 s

  Updating Kohn-Sham eigenvalues and eigenvectors using ELSI and the (modified) LAPACK eigensolver.
  Starting LAPACK eigensolver
  Finished Cholesky decomposition
  | Time :     0.000 s
  Finished transformation to standard eigenproblem
  | Time :     0.000 s
  Finished solving standard eigenproblem
  | Time :     0.001 s
  Finished back-transformation of eigenvectors
  | Time :     0.000 s

  Obtaining occupation numbers and chemical potential using ELSI.
  | Chemical potential (Fermi level):    -1.56331751 eV
  What follows are estimated values for band gap, HOMO, LUMO, etc.
  | They are estimated on a discrete k-point grid and not necessarily exact.
  | For converged numbers, create a DOS and/or band structure plot on a denser k-grid.

  Highest occupied state (VBM) at     -2.04741709 eV (relative to internal zero)
  | Occupation number:      2.00000000
  | K-point:       1 at    0.000000    0.000000    0.000000 (in units of recip. lattice)

  Lowest unoccupied state (CBM) at    -0.26194548 eV (relative to internal zero)
  | Occupation number:      0.00000000
  | K-point:      12 at    0.285714    0.428571    0.000000 (in units of recip. lattice)

  ESTIMATED overall HOMO-LUMO gap:      1.78547161 eV between HOMO at k-point 1 and LUMO at k-point 12
  | This appears to be an indirect band gap.
  | Smallest direct gap :      2.07606124 eV for k_point 24 at    0.857143    0.285714    0.000000 (in units of recip. lattice)
  The gap value is above 0.2 eV. Unless you are using a very sparse k-point grid,
  this system is most likely an insulator or a semiconductor.

  Checking to see if s.c.f. parameters should be adjusted.

  Total energy components:
  | Sum of eigenvalues            :       -2917.04703616 Ha      -79376.88850556 eV
  | XC energy correction          :        -175.69215880 Ha       -4780.82688669 eV
  | XC potential correction       :         228.43981987 Ha        6216.16377360 eV
  | Free-atom electrostatic energy:       -2013.09837124 Ha      -54779.19381611 eV
  | Hartree energy correction     :          -4.19525732 Ha        -114.15875997 eV
  | Ionic    embedding energy     :          -5.87989193 Ha        -160.00000001 eV
  | Density  embedding energy     :           5.91113920 Ha         160.85028164 eV
  | Nonlocal embedding energy     :           0.00000000 Ha           0.00000000 eV
  | External embedding energy     :           0.03124728 Ha           0.85028163 eV
  | Entropy correction            :          -0.00000000 Ha          -0.00000000 eV
  | ---------------------------
  | Total energy                  :       -4887.50414285 Ha     -132995.75447637 eV
  | Total energy, T -> 0          :       -4887.50414285 Ha     -132995.75447637 eV  <-- do not rely on this value for anything but (periodic) metals
  | Electronic free energy        :       -4887.50414285 Ha     -132995.75447637 eV

  Total energy including external embedding contributions:
  | Total energy + embedding      :       -4887.47289557 Ha     -132994.90419474 eV
  | Total energy + embedding, T->0:       -4887.47289557 Ha     -132994.90419474 eV  <-- do not rely on this value for anything but (periodic) metals
  | Elec. free energy + embedding :       -4887.47289557 Ha     -132994.90419474 eV

  Derived energy quantities:
  | Kinetic energy                :        5024.60752968 Ha      136726.52745174 eV
  | Electrostatic energy          :       -9730.50837453 Ha     -264780.60475978 eV
  | Energy correction for multipole
  | error in Hartree potential    :           0.00011708 Ha           0.00318603 eV
  | Sum of eigenvalues per atom                           :      -26458.96283519 eV
  | Total energy (T->0) per atom                          :      -44331.91815879 eV  <-- do not rely on this value for anything but (periodic) metals
  | Electronic free energy per atom                       :      -44331.91815879 eV
  Evaluating new KS density using the density matrix
  Evaluating density matrix
  Time summed over all CPUs for getting density from density matrix: real work        2.969 s, elapsed        2.988 s
  Integration grid: deviation in total charge (<rho> - N_e) =  -4.263256E-13

  Self-consistency convergence accuracy:
  | Change of charge density      :  0.1579E+00
  | Change of sum of eigenvalues  :  0.1435E+02 eV
  | Change of total energy        :  0.2330E+00 eV


------------------------------------------------------------
  End self-consistency iteration #     3       :  max(cpu_time)    wall_clock(cpu1)
  | Time for this iteration                    :        2.832 s           2.831 s
  | Charge density update                      :        1.499 s           1.499 s
  | Density mixing & preconditioning           :        0.285 s           0.284 s
  | Hartree multipole update                   :        0.001 s           0.002 s
  | Hartree multipole summation                :        0.441 s           0.441 s
  | Integration                                :        0.571 s           0.570 s
  | Solution of K.-S. eqns.                    :        0.033 s           0.034 s
  | Total energy evaluation                    :        0.001 s           0.001 s

  Partial memory accounting:
  | Current value for overall tracked memory usage:
  |   Minimum:        2.785 MB (on task 0)
  |   Maximum:        2.859 MB (on task 1)
  |   Average:        2.822 MB
  | Peak value for overall tracked memory usage:
  |   Minimum:       13.562 MB (on task 0 after allocating gradient_basis_wave)
  |   Maximum:       14.187 MB (on task 1 after allocating gradient_basis_wave)
  |   Average:       13.874 MB
  | Largest tracked array allocation so far:
  |   Minimum:        4.155 MB (hamiltonian_shell on task 0)
  |   Maximum:        4.465 MB (hamiltonian_shell on task 1)
  |   Average:        4.310 MB
  Note:  These values currently only include a subset of arrays which are explicitly tracked.
  The "true" memory usage will be greater.
------------------------------------------------------------

------------------------------------------------------------
          Begin self-consistency iteration #    4

  Date     :  20210520, Time     :  200635.979
------------------------------------------------------------
  Pulay mixing of updated and previous charge densities.
  Renormalizing the density to the exact electron count on the 3D integration grid.
  | Formal number of electrons (from input files) :      74.0000000000
  | Integrated number of electrons on 3D grid     :      73.9984161604
  | Charge integration error                      :      -0.0015838396
  | Normalization factor for density and gradient :       1.0000214037

  Evaluating partitioned Hartree potential by multipole expansion.
  | Original multipole sum: apparent total charge =   0.229890E-12
  | Sum of charges compensated after spline to logarithmic grids =   0.102378E-04
  | Analytical far-field extrapolation by fixed multipoles:
  | Hartree multipole sum: apparent total charge =   0.230038E-12
  Summing up the Hartree potential.
  Time summed over all CPUs for potential: real work        1.174 s, elapsed        1.178 s
  | RMS charge density error from multipole expansion :   0.922986E-02
  | Average real-space part of the electrostatic potential :      0.00021913 eV

  Integrating Hamiltonian matrix: batch-based integration.
  Time summed over all CPUs for integration: real work        1.360 s, elapsed        1.372 s

  Updating Kohn-Sham eigenvalues and eigenvectors using ELSI and the (modified) LAPACK eigensolver.
  Starting LAPACK eigensolver
  Finished Cholesky decomposition
  | Time :     0.001 s
  Finished transformation to standard eigenproblem
  | Time :     0.001 s
  Finished solving standard eigenproblem
  | Time :     0.002 s
  Finished back-transformation of eigenvectors
  | Time :     0.000 s

  Obtaining occupation numbers and chemical potential using ELSI.
  | Chemical potential (Fermi level):    -0.76212807 eV
  What follows are estimated values for band gap, HOMO, LUMO, etc.
  | They are estimated on a discrete k-point grid and not necessarily exact.
  | For converged numbers, create a DOS and/or band structure plot on a denser k-grid.

  Highest occupied state (VBM) at     -1.25401770 eV (relative to internal zero)
  | Occupation number:      2.00000000
  | K-point:      16 at    0.428571    0.285714    0.000000 (in units of recip. lattice)

  Lowest unoccupied state (CBM) at     1.00204025 eV (relative to internal zero)
  | Occupation number:      0.00000000
  | K-point:      24 at    0.857143    0.285714    0.000000 (in units of recip. lattice)

  ESTIMATED overall HOMO-LUMO gap:      2.25605795 eV between HOMO at k-point 16 and LUMO at k-point 24
  | This appears to be an indirect band gap.
  | Smallest direct gap :      2.26316070 eV for k_point 23 at    0.714286    0.714286    0.000000 (in units of recip. lattice)
  The gap value is above 0.2 eV. Unless you are using a very sparse k-point grid,
  this system is most likely an insulator or a semiconductor.

  Total energy components:
  | Sum of eigenvalues            :       -2914.21960531 Ha      -79299.95019748 eV
  | XC energy correction          :        -175.68101706 Ha       -4780.52370467 eV
  | XC potential correction       :         228.42603447 Ha        6215.78865385 eV
  | Free-atom electrostatic energy:       -2013.09837124 Ha      -54779.19381611 eV
  | Hartree energy correction     :          -7.01534796 Ha        -190.89733067 eV
  | Ionic    embedding energy     :          -5.87989193 Ha        -160.00000001 eV
  | Density  embedding energy     :           5.87972229 Ha         159.99538389 eV
  | Nonlocal embedding energy     :           0.00000000 Ha           0.00000000 eV
  | External embedding energy     :          -0.00016964 Ha          -0.00461613 eV
  | Entropy correction            :          -0.00000000 Ha          -0.00000000 eV
  | ---------------------------
  | Total energy                  :       -4887.46802938 Ha     -132994.77177897 eV
  | Total energy, T -> 0          :       -4887.46802938 Ha     -132994.77177897 eV  <-- do not rely on this value for anything but (periodic) metals
  | Electronic free energy        :       -4887.46802938 Ha     -132994.77177897 eV

  Total energy including external embedding contributions:
  | Total energy + embedding      :       -4887.46819902 Ha     -132994.77639510 eV
  | Total energy + embedding, T->0:       -4887.46819902 Ha     -132994.77639510 eV  <-- do not rely on this value for anything but (periodic) metals
  | Elec. free energy + embedding :       -4887.46819902 Ha     -132994.77639510 eV

  Derived energy quantities:
  | Kinetic energy                :        5024.61492595 Ha      136726.72871447 eV
  | Electrostatic energy          :       -9730.52221598 Ha     -264780.98140488 eV
  | Energy correction for multipole
  | error in Hartree potential    :          -0.00040188 Ha          -0.01093570 eV
  | Sum of eigenvalues per atom                           :      -26433.31673249 eV
  | Total energy (T->0) per atom                          :      -44331.59059299 eV  <-- do not rely on this value for anything but (periodic) metals
  | Electronic free energy per atom                       :      -44331.59059299 eV
  Evaluating new KS density using the density matrix
  Evaluating density matrix
  Time summed over all CPUs for getting density from density matrix: real work        3.067 s, elapsed        3.089 s
[...]
  | They are estimated on a discrete k-point grid and not necessarily exact.
  | For converged numbers, create a DOS and/or band structure plot on a denser k-grid.

  Highest occupied state (VBM) at     -1.46201990 eV (relative to internal zero)
  | Occupation number:      2.00000000
  | K-point:       1 at    0.000000    0.000000    0.000000 (in units of recip. lattice)

  Lowest unoccupied state (CBM) at     0.64913258 eV (relative to internal zero)
  | Occupation number:      0.00000000
  | K-point:      12 at    0.285714    0.428571    0.000000 (in units of recip. lattice)

  ESTIMATED overall HOMO-LUMO gap:      2.11115247 eV between HOMO at k-point 1 and LUMO at k-point 12
  | This appears to be an indirect band gap.
  | Smallest direct gap :      2.18853840 eV for k_point 12 at    0.285714    0.428571    0.000000 (in units of recip. lattice)
  The gap value is above 0.2 eV. Unless you are using a very sparse k-point grid,
  this system is most likely an insulator or a semiconductor.

  Total energy components:
  | Sum of eigenvalues            :       -2915.81719970 Ha      -79343.42295270 eV
  | XC energy correction          :        -175.62965682 Ha       -4779.12612146 eV
  | XC potential correction       :         228.35675214 Ha        6213.90338561 eV
  | Free-atom electrostatic energy:       -2013.09837124 Ha      -54779.19381611 eV
  | Hartree energy correction     :          -5.38803564 Ha        -146.61590950 eV
  | Ionic    embedding energy     :          -5.87989193 Ha        -160.00000001 eV
  | Density  embedding energy     :           5.88260000 Ha         160.07369049 eV
  | Nonlocal embedding energy     :           0.00000000 Ha           0.00000000 eV
  | External embedding energy     :           0.00270808 Ha           0.07369047 eV
  | Entropy correction            :          -0.00000000 Ha          -0.00000000 eV
  | ---------------------------
  | Total energy                  :       -4887.45911126 Ha     -132994.52910465 eV
  | Total energy, T -> 0          :       -4887.45911126 Ha     -132994.52910465 eV  <-- do not rely on this value for anything but (periodic) metals
  | Electronic free energy        :       -4887.45911126 Ha     -132994.52910465 eV

  Total energy including external embedding contributions:
  | Total energy + embedding      :       -4887.45640319 Ha     -132994.45541418 eV
  | Total energy + embedding, T->0:       -4887.45640319 Ha     -132994.45541418 eV  <-- do not rely on this value for anything but (periodic) metals
  | Elec. free energy + embedding :       -4887.45640319 Ha     -132994.45541418 eV

  Derived energy quantities:
  | Kinetic energy                :        5024.26741606 Ha      136717.27248911 eV
  | Electrostatic energy          :       -9730.21427049 Ha     -264772.60178181 eV
  | Energy correction for multipole
  | error in Hartree potential    :          -0.00138199 Ha          -0.03760576 eV
  | Sum of eigenvalues per atom                           :      -26447.80765090 eV
  | Total energy (T->0) per atom                          :      -44331.50970155 eV  <-- do not rely on this value for anything but (periodic) metals
  | Electronic free energy per atom                       :      -44331.50970155 eV
  Preliminary charge convergence reached. Turning off preconditioner.


  Self-consistency convergence accuracy:
  | Change of charge density      :  0.6166E-04
  | Change of sum of eigenvalues  : -0.2944E-02 eV
  | Change of total energy        :  0.7604E-06 eV

  Writing Kohn-Sham eigenvalues.
  K-point:       1 at    0.000000    0.000000    0.000000 (in units of recip. lattice)

  State    Occupation    Eigenvalue [Ha]    Eigenvalue [eV]
      1       2.00000        -745.230988       -20278.76696
      2       2.00000        -103.186995        -2807.86100
      3       2.00000         -92.206279        -2509.06050
      4       2.00000         -92.206251        -2509.05975
      5       2.00000         -92.206251        -2509.05975
      6       2.00000         -88.516520        -2408.65707
      7       2.00000         -88.484403        -2407.78310
      8       2.00000         -17.419531         -474.00956
      9       2.00000         -13.839494         -376.59180
     10       2.00000         -13.838569         -376.56663
     11       2.00000         -13.838569         -376.56663
     12       2.00000          -8.022636         -218.30704
     13       2.00000          -8.022636         -218.30704
     14       2.00000          -8.022408         -218.30082
     15       2.00000          -8.021744         -218.28276
     16       2.00000          -8.021744         -218.28276
     17       2.00000          -7.600731         -206.82641
     18       2.00000          -7.591811         -206.58368
     19       2.00000          -5.573377         -151.65931
     20       2.00000          -5.573377         -151.65930
     21       2.00000          -5.570188         -151.57253
     22       2.00000          -5.561951         -151.34839
     23       2.00000          -5.561951         -151.34839
     24       2.00000          -5.560105         -151.29815
     25       2.00000          -2.275566          -61.92129
     26       2.00000          -1.331214          -36.22418
     27       2.00000          -1.320242          -35.92562
     28       2.00000          -1.320241          -35.92560
     29       2.00000          -0.553308          -15.05628
     30       2.00000          -0.491551          -13.37579
     31       2.00000          -0.247496           -6.73471
     32       2.00000          -0.136580           -3.71652
     33       2.00000          -0.136575           -3.71641
     34       2.00000          -0.096335           -2.62141
     35       2.00000          -0.090529           -2.46343
     36       2.00000          -0.090523           -2.46326
     37       2.00000          -0.053728           -1.46202
     38       0.00000           0.057255            1.55798
     39       0.00000           0.057260            1.55812
     40       0.00000           0.085232            2.31929
     41       0.00000           0.085241            2.31953
     42       0.00000           0.190771            5.19114
     43       0.00000           0.280018            7.61967
     44       0.00000           0.314096            8.54698
     45       0.00000           0.329616            8.96932
     46       0.00000           0.372188           10.12775
     47       0.00000           0.372208           10.12830
     48       0.00000           0.453139           12.33055
     49       0.00000           0.453188           12.33187

  What follows are estimated values for band gap, HOMO, LUMO, etc.
  | They are estimated on a discrete k-point grid and not necessarily exact.
  | For converged numbers, create a DOS and/or band structure plot on a denser k-grid.

  Highest occupied state (VBM) at     -1.46201990 eV (relative to internal zero)
  | Occupation number:      2.00000000
  | K-point:       1 at    0.000000    0.000000    0.000000 (in units of recip. lattice)

  Lowest unoccupied state (CBM) at     0.64913258 eV (relative to internal zero)
  | Occupation number:      0.00000000
  | K-point:      12 at    0.285714    0.428571    0.000000 (in units of recip. lattice)

  ESTIMATED overall HOMO-LUMO gap:      2.11115247 eV between HOMO at k-point 1 and LUMO at k-point 12
  | This appears to be an indirect band gap.
  | Smallest direct gap :      2.18853840 eV for k_point 12 at    0.285714    0.428571    0.000000 (in units of recip. lattice)
  The gap value is above 0.2 eV. Unless you are using a very sparse k-point grid,
  this system is most likely an insulator or a semiconductor.
  | Chemical Potential                          :    -0.98436721 eV

  Self-consistency cycle converged.


------------------------------------------------------------
  End self-consistency iteration #    19       :  max(cpu_time)    wall_clock(cpu1)
  | Time for this iteration                    :        1.640 s           1.639 s
  | Charge density update                      :        0.000 s           0.000 s
  | Density mixing                             :        0.307 s           0.306 s
  | Hartree multipole update                   :        0.002 s           0.002 s
  | Hartree multipole summation                :        0.621 s           0.621 s
  | Integration                                :        0.669 s           0.669 s
  | Solution of K.-S. eqns.                    :        0.038 s           0.038 s
  | Total energy evaluation                    :        0.001 s           0.001 s

  Partial memory accounting:
  | Current value for overall tracked memory usage:
  |   Minimum:        2.785 MB (on task 0)
  |   Maximum:        2.859 MB (on task 1)
  |   Average:        2.822 MB
  | Peak value for overall tracked memory usage:
  |   Minimum:       13.562 MB (on task 0 after allocating gradient_basis_wave)
  |   Maximum:       14.188 MB (on task 1 after allocating gradient_basis_wave)
  |   Average:       13.875 MB
  | Largest tracked array allocation so far:
  |   Minimum:        4.155 MB (hamiltonian_shell on task 0)
  |   Maximum:        4.465 MB (hamiltonian_shell on task 1)
  |   Average:        4.310 MB
  Note:  These values currently only include a subset of arrays which are explicitly tracked.
  The "true" memory usage will be greater.
------------------------------------------------------------

  Energy and forces in a compact form:
  | Total energy uncorrected      :         -0.132994455414175E+06 eV
  | Total energy corrected        :         -0.132994455414175E+06 eV  <-- do not rely on this value for anything but (periodic) metals
  | Electronic free energy        :         -0.132994455414175E+06 eV

  ------------------------------------ 
  Start decomposition of the XC Energy 
  ------------------------------------ 
  X and C from original XC functional choice 
  Hartree-Fock Energy :          0.000000000 Ha              0.000000000 eV
  X Energy            :       -172.144332450 Ha          -4684.285619805 eV
  C Energy            :         -3.485324374 Ha            -94.840501657 eV
  Total XC Energy     :       -175.629656825 Ha          -4779.126121461 eV
  ------------------------------------ 
  LDA X and C from self-consistent density 
  X Energy LDA        :       -162.600973195 Ha          -4424.597601687 eV
  C Energy LDA        :         -6.410753775 Ha           -174.445485910 eV
  ------------------------------------ 
  End decomposition of the XC Energy 
  ------------------------------------ 

------------------------------------------------------------

  -------------------------------------------------------------------
  Writing the requested band structure output (LAPACK version):
  -------------------------------------------------------------------

  Integrating Hamiltonian matrix: batch-based integration.
  Time summed over all CPUs for integration: real work        1.390 s, elapsed        1.410 s

  Treating all   23 k-points in band plot segment #   1:

  Overlap matrix is not singular
  | Lowest and highest eigenvalues :  0.2932E-02,  0.7779E+01
  Finished singularity check of overlap matrix
  | Time :     0.002 s
  Starting LAPACK eigensolver
  Finished Cholesky decomposition
  | Time :     0.000 s
  Finished transformation to standard eigenproblem
  | Time :     0.000 s
  Finished solving standard eigenproblem
  | Time :     0.001 s
  Finished back-transformation of eigenvectors
  | Time :     0.000 s

  "Band gap" along reciprocal space direction number:    1
  | Lowest unoccupied state:       0.91997193 eV
  | Highest occupied state :      -1.46201990 eV
  | Energy difference      :       2.38199183 eV


  Treating all   13 k-points in band plot segment #   2:


  "Band gap" along reciprocal space direction number:    2
  | Lowest unoccupied state:       0.40572216 eV
  | Highest occupied state :      -1.35538154 eV
  | Energy difference      :       1.76110370 eV


  Treating all   27 k-points in band plot segment #   3:


  "Band gap" along reciprocal space direction number:    3
  | Lowest unoccupied state:       0.40572216 eV
  | Highest occupied state :      -1.35538154 eV
  | Energy difference      :       1.76110370 eV

  "Band gap" of total set of bands:
  | Lowest unoccupied state:       0.40572216 eV
  | Highest occupied state :      -1.35538154 eV
  | Energy difference      :       1.76110370 eV


  Band Structure                                          :  max(cpu_time) wall_clock(cpu1)
  | Total Time                                            :          0.858            0.874
------------------------------------------------------------

------------------------------------------------------------------------------
  Final output of selected total energy values:

  The following output summarizes some interesting total energy values
  at the end of a run (AFTER all relaxation, molecular dynamics, etc.).

  | Total energy of the DFT / Hartree-Fock s.c.f. calculation      :        -132994.455414175 eV
  | Final zero-broadening corrected energy (caution - metals only) :        -132994.455414175 eV
  | For reference only, the value of 1 Hartree used in FHI-aims is :             27.211384500 eV
  | For reference only, the overall average (free atom contribution
  | + realspace contribution) of the electrostatic potential after
  | s.c.f. convergence is                                          :             -1.104246990 eV

  Before relying on these values, please be sure to understand exactly which
  total energy value is referred to by a given number. Different objects may
  all carry the same name 'total energy'. Definitions:

  Total energy of the DFT / Hartree-Fock s.c.f. calculation:
  | Note that this energy does not include ANY quantities calculated after the
  | s.c.f. cycle, in particular not ANY RPA, MP2, etc. many-body perturbation terms.

  Final zero-broadening corrected energy:
  | For metallic systems only, a broadening of the occupation numbers at the Fermi
  | level can be extrapolated back to zero broadening by an electron-gas inspired
  | formula. For all systems that are not real metals, this value can be
  | meaningless and should be avoided.

------------------------------------------------------------------------------
  Methods described in the following list of references were used in this FHI-aims run.
  If you publish the results, please make sure to cite these reference if they apply.
  FHI-aims is an academic code, and for our developers (often, Ph.D. students
  and postdocs), scientific credit in the community is essential.
  Thank you for helping us!

  For any use of FHI-aims, please cite:

    Volker Blum, Ralf Gehrke, Felix Hanke, Paula Havu, Ville Havu,
    Xinguo Ren, Karsten Reuter, and Matthias Scheffler
    'Ab initio molecular simulations with numeric atom-centered orbitals'
    Computer Physics Communications 180, 2175-2196 (2009)
    http://dx.doi.org/10.1016/j.cpc.2009.06.022


  For pseudopotentials or QM/MM embedding infrastructure used in your run, please cite:

    D. Berger, A. J. Logsdail, H. Oberhofer, M. R. Farrow, C. R. A. Catlow, P. Sherwood,
    A. A. Sokol, V. Blum, and K. Reuter,
    'Embedded-cluster calculations in a numeric atomic orbital'
    'density-functional theory framework'
    The Journal of Chemical Physics 141, (2014).
    http://dx.doi.org/10.1063/1.4885816


  The provided symmetry information was generated with SPGlib:

    Atsushi Togo, Yusuke Seto, Dimitar Pashov
    SPGlib 1.7.3 obtained from http://spglib.sourceforge.net
    Copyright (C) 2008 Atsushi Togo


  The ELSI infrastructure was used in your run to solve the Kohn-Sham electronic structure.
  Please check out http://elsi-interchange.org to learn more.
  If scalability is important for your project, please acknowledge ELSI by citing:

    V. W-z. Yu, F. Corsetti, A. Garcia, W. P. Huhn, M. Jacquelin, W. Jia,
    B. Lange, L. Lin, J. Lu, W. Mi, A. Seifitokaldani, A. Vazquez-Mayagoitia,
    C. Yang, H. Yang, and V. Blum
    'ELSI: A unified software interface for Kohn-Sham electronic structure solvers'
    Computer Physics Communications 222, 267-285 (2018).
    http://dx.doi.org/10.1016/j.cpc.2017.09.007


  For the real-space grid partitioning and parallelization used in this calculation, please cite:

    Ville Havu, Volker Blum, Paula Havu, and Matthias Scheffler,
    'Efficient O(N) integration for all-electron electronic structure calculation'
    'using numerically tabulated basis functions'
    Journal of Computational Physics 228, 8367-8379 (2009).
    http://dx.doi.org/10.1016/j.jcp.2009.08.008

  Of course, there are many other important community references, e.g., those cited in the
  above references. Our list is limited to references that describe implementations in the
  FHI-aims code. The reason is purely practical (length of this list) - please credit others as well.

 * A warning was issued further up regarding the accuracy of onsite integrals.
   An integral with a negative eigenvalue was among the flagged integrals.
   In most standard situations, this warning is probably harmless.
   If needed, this can be verified by adjusting the radial_multiplier flag.

------------------------------------------------------------
          Leaving FHI-aims.
          Date     :  20210520, Time     :  200726.948

          Computational steps:
          | Number of self-consistency cycles          :           19
          | Number of SCF (re)initializations          :            1

          Detailed time accounting                     :  max(cpu_time)    wall_clock(cpu1)
          | Total time                                 :       66.430 s          66.476 s
          | Preparation time                           :        0.228 s           0.229 s
          | Boundary condition initalization           :        4.998 s           4.998 s
          | Grid partitioning                          :        0.061 s           0.061 s
          | Preloading free-atom quantities on grid    :        0.164 s           0.162 s
          | Free-atom superposition energy             :        0.031 s           0.031 s
          | Total time for integrations                :       13.605 s          13.606 s
          | Total time for solution of K.-S. equations :        0.815 s           0.813 s
          | Total time for density update              :       28.316 s          28.317 s
          | Total time for mixing & preconditioning    :        5.932 s           5.928 s
          | Total time for Hartree multipole update    :        0.034 s           0.031 s
          | Total time for Hartree multipole sum       :       11.283 s          11.285 s
          | Total time for total energy evaluation     :        0.019 s           0.016 s
          | Total time for scaled ZORA corrections     :        0.000 s           0.000 s
          | Total time for QM/MM embedding             :        0.000 s           0.000 s
          | Total time for band structures, DOS        :        0.865 s           0.874 s

          Partial memory accounting:
          | Residual value for overall tracked memory usage across tasks:     0.000000 MB (should be 0.000000 MB)
          | Peak values for overall tracked memory usage:
          |   Minimum:       13.562 MB (on task 0 after allocating gradient_basis_wave)
          |   Maximum:       14.188 MB (on task 1 after allocating gradient_basis_wave)
          |   Average:       13.875 MB
          | Largest tracked array allocation:
          |   Minimum:        4.155 MB (hamiltonian_shell on task 0)
          |   Maximum:        4.465 MB (hamiltonian_shell on task 1)
          |   Average:        4.310 MB
          Note:  These values currently only include a subset of arrays which are explicitly tracked.
          The "true" memory usage will be greater.

          Have a nice day.
------------------------------------------------------------
