------------------------------------------------------------
          Invoking FHI-aims ...

          When using FHI-aims, please cite the following reference:

          Volker Blum, Ralf Gehrke, Felix Hanke, Paula Havu,
          Ville Havu, Xinguo Ren, Karsten Reuter, and Matthias Scheffler,
          'Ab Initio Molecular Simulations with Numeric Atom-Centered Orbitals',
          Computer Physics Communications 180, 2175-2196 (2009)

          For any questions about FHI-aims, please visit the aimsclub website
          with its forums and wiki. Contributions to both the forums and the
          wiki are warmly encouraged - they are for you, and everyone is welcome there.

------------------------------------------------------------



  Date     :  20200420, Time     :  205937.736
  Time zero on CPU 1             :   0.121220000000000E+00  s.
  Internal wall clock time zero  :           356648377.736  s.

  FHI-aims created a unique identifier for this run for later identification
  aims_uuid : 702DFAB5-9B01-4CD6-A29D-593C15C7B0A2

  Build configuration of the current instance of FHI-aims
  -------------------------------------------------------
  FHI-aims version      : 200112
  Commit number         : 23daeca3f
  CMake host system     : Linux-3.10.0-693.21.1.el7.x86_64
  CMake version         : 3.13.3
  Fortran compiler      : /sw/installed/impi/2018.4.274-iccifort-2019.1.144-GCC-8.2.0-2.31.1/bin64/mpiifort (Intel) version 19.0.0.20181018
  Fortran compiler flags: -O3 -ip -fp-model precise
  C compiler            : /sw/installed/impi/2018.4.274-iccifort-2019.1.144-GCC-8.2.0-2.31.1/bin64/mpiicc (Intel) version 19.0.0.20181018
  C compiler flags      : -O3 -ip -fp-model precise
  Architecture          :
  Using MPI
  Using Scalapack
  Using C files
  Using LibXC
  Using SPGlib
  Using i-PI
  Using RLSY
  Linking against: /sw/installed/imkl/2019.1.144-iimpi-2019a/mkl/lib/intel64/libmkl_intel_lp64.so
                   /sw/installed/imkl/2019.1.144-iimpi-2019a/mkl/lib/intel64/libmkl_sequential.so
                   /sw/installed/imkl/2019.1.144-iimpi-2019a/mkl/lib/intel64/libmkl_core.so
                   /sw/installed/imkl/2019.1.144-iimpi-2019a/mkl/lib/intel64/libmkl_blacs_intelmpi_lp64.so
                   /sw/installed/imkl/2019.1.144-iimpi-2019a/mkl/lib/intel64/libmkl_scalapack_lp64.so

  Using       24 parallel tasks.
  Task        0 on host taurusi6571.taurus.hrsk.tu-dresden.de reporting.
  Task        1 on host taurusi6571.taurus.hrsk.tu-dresden.de reporting.
  Task        2 on host taurusi6571.taurus.hrsk.tu-dresden.de reporting.
  Task        3 on host taurusi6571.taurus.hrsk.tu-dresden.de reporting.
  Task        4 on host taurusi6571.taurus.hrsk.tu-dresden.de reporting.
  Task        5 on host taurusi6571.taurus.hrsk.tu-dresden.de reporting.
  Task        6 on host taurusi6571.taurus.hrsk.tu-dresden.de reporting.
  Task        7 on host taurusi6571.taurus.hrsk.tu-dresden.de reporting.
  Task        8 on host taurusi6571.taurus.hrsk.tu-dresden.de reporting.
  Task        9 on host taurusi6571.taurus.hrsk.tu-dresden.de reporting.
  Task       10 on host taurusi6571.taurus.hrsk.tu-dresden.de reporting.
  Task       11 on host taurusi6571.taurus.hrsk.tu-dresden.de reporting.
  Task       12 on host taurusi6571.taurus.hrsk.tu-dresden.de reporting.
  Task       13 on host taurusi6571.taurus.hrsk.tu-dresden.de reporting.
  Task       14 on host taurusi6571.taurus.hrsk.tu-dresden.de reporting.
  Task       15 on host taurusi6571.taurus.hrsk.tu-dresden.de reporting.
  Task       16 on host taurusi6571.taurus.hrsk.tu-dresden.de reporting.
  Task       17 on host taurusi6571.taurus.hrsk.tu-dresden.de reporting.
  Task       18 on host taurusi6571.taurus.hrsk.tu-dresden.de reporting.
  Task       19 on host taurusi6571.taurus.hrsk.tu-dresden.de reporting.
  Task       20 on host taurusi6571.taurus.hrsk.tu-dresden.de reporting.
  Task       21 on host taurusi6571.taurus.hrsk.tu-dresden.de reporting.
  Task       22 on host taurusi6571.taurus.hrsk.tu-dresden.de reporting.
  Task       23 on host taurusi6571.taurus.hrsk.tu-dresden.de reporting.

  Performing system and environment tests:
  | Environment variable OMP_NUM_THREADS correctly set to 1.
  | Maximum stacksize for task 0: unlimited
  | Maximum stacksize for task 1: unlimited
  | Maximum stacksize for task 2: unlimited
  | Maximum stacksize for task 3: unlimited
  | Maximum stacksize for task 4: unlimited
  | Maximum stacksize for task 5: unlimited
  | Maximum stacksize for task 6: unlimited
  | Maximum stacksize for task 7: unlimited
  | Maximum stacksize for task 8: unlimited
  | Maximum stacksize for task 9: unlimited
  | Maximum stacksize for task 10: unlimited
  | Maximum stacksize for task 11: unlimited
  | Maximum stacksize for task 12: unlimited
  | Maximum stacksize for task 13: unlimited
  | Maximum stacksize for task 14: unlimited
  | Maximum stacksize for task 15: unlimited
  | Maximum stacksize for task 16: unlimited
  | Maximum stacksize for task 17: unlimited
  | Maximum stacksize for task 18: unlimited
  | Maximum stacksize for task 19: unlimited
  | Maximum stacksize for task 20: unlimited
  | Maximum stacksize for task 21: unlimited
  | Maximum stacksize for task 22: unlimited
  | Maximum stacksize for task 23: unlimited
  | Current stacksize for task 0: unlimited
  | Current stacksize for task 1: unlimited
  | Current stacksize for task 2: unlimited
  | Current stacksize for task 3: unlimited
  | Current stacksize for task 4: unlimited
  | Current stacksize for task 5: unlimited
  | Current stacksize for task 6: unlimited
  | Current stacksize for task 7: unlimited
  | Current stacksize for task 8: unlimited
  | Current stacksize for task 9: unlimited
  | Current stacksize for task 10: unlimited
  | Current stacksize for task 11: unlimited
  | Current stacksize for task 12: unlimited
  | Current stacksize for task 13: unlimited
  | Current stacksize for task 14: unlimited
  | Current stacksize for task 15: unlimited
  | Current stacksize for task 16: unlimited
  | Current stacksize for task 17: unlimited
  | Current stacksize for task 18: unlimited
  | Current stacksize for task 19: unlimited
  | Current stacksize for task 20: unlimited
  | Current stacksize for task 21: unlimited
  | Current stacksize for task 22: unlimited
  | Current stacksize for task 23: unlimited
  | Checking for scalapack...
  | Testing pdtran()...
  | All pdtran() tests passed.

  Obtaining array dimensions for all initial allocations:
  
  -----------------------------------------------------------------------
  Parsing control.in (first pass over file, find array dimensions only).
  The contents of control.in will be repeated verbatim below
  unless switched off by setting 'verbatim_writeout .false.' .
  in the first line of control.in .
  -----------------------------------------------------------------------
  
  #===============================================================================
  # FHI-aims file: ./control.in
  # Created using the Atomic Simulation Environment (ASE)
  # Thu Apr  2 11:27:09 2020
  #===============================================================================
  xc                                 pbe
  # include_spin_orbit
  # vdw_correction_hirshfeld
  many_body_dispersion
  spin                               none
  k_grid 	 	 25 25 20
  relativistic                       atomic_zora scalar
  energy_tolerance 1e-2
  harmonic_length_scale  0.015
  ### SCF settings
  adjust_scf 	 always 	 3
  # frozen_core_scf 	 .true.
  # charge_mix_param  0.05
  # occupation_type 	 gaussian 	 0.01
  # sc_accuracy_eev   1E-3 	 	 # sum of eigenvalues convergence
  # sc_accuracy_etot  1E-6 	 	 # total energy convergence
  # sc_accuracy_rho   1E-3 	 	 # electron density convergence
  # elsi_restart 	 read_and_write 	 1000
  ### geometry optimisation section
  relax_geometry 	 bfgs 	 1E-2
  relax_unit_cell 	 full
  #===============================================================================
  
  ################################################################################
  #
  #  FHI-aims code project
  # Volker Blum, Fritz Haber Institute Berlin, 2009
  #
  #  Suggested "tight" defaults for Pd atom (to be pasted into control.in file)
  #
  ################################################################################
    species        Pd
  #     global species definitions
      nucleus             46
      mass                106.42
  #
      l_hartree           6
  #
      cut_pot             4.0  2.0  1.0
      basis_dep_cutoff    1e-4
  #
      radial_base         62 7.0
      radial_multiplier   2
      angular_grids specified
        division   0.3627   50
        division   0.7349  110
        division   1.0624  194
        division   1.2496  302
        division   1.6740  434
  #      division   2.0126  590
  #      division   2.0830  770
  #      division   2.7936 1202
  #       outer_grid  974
        outer_grid  434
  ################################################################################
  #
  #  Definition of "minimal" basis
  #
  ################################################################################
  #     valence basis states
      valence      5  s   1.
      valence      4  p   6.
      valence      4  d   9.
  #     ion occupancy
      ion_occ     5  s   0.
      ion_occ     4  p   6.
      ion_occ     4  d   8.
  ################################################################################
  #
  #  Suggested additional basis functions. For production calculations,
  #  uncomment them one after another (the most important basis functions are
  #  listed first).
  #
  #  Constructed for dimers: 2.0 A, 2.275 A, 2.75 A, 3.75 A
  #
  ################################################################################
  #  "First tier" - max. impr. -120.76  meV, min. impr. -5.71 meV
       ionic 5 p auto
       hydro 4 f 8
       hydro 5 g 10
       hydro 3 s 2.6
       hydro 3 d 2.5
  #  "Second tier" - max. impr. -5.00  meV, min. impr. -0.62 meV
  #     hydro 5 f 17.2
  #     hydro 6 h 14
  #     hydro 4 d 4
  #     hydro 5 f 7.6
  #     hydro 3 p 3.3
  #     hydro 4 s 9.4
  #  "Third tier" - max. impr. -0.54  meV, min. impr. -0.14 meV
  #     hydro 4 f 20
  #     hydro 5 g 12.8
  #     hydro 5 d 9.8
  #     hydro 6 h 15.2
  #     hydro 5 s 10
  #     hydro 6 p 9.8
  #  "Fourth tier" - max. impr. -0.15  meV, min. impr. -0.05 meV
  #     hydro 5 f 9.2
  #     hydro 2 s 5.6
  #     hydro 5 f 43.2
  #     hydro 5 d 13.2
  #     hydro 5 g 14
  #     hydro 4 p 4.7
  ################################################################################
  #
  #  FHI-aims code project
  # Volker Blum, Fritz Haber Institute Berlin, 2009
  #
  #  Suggested "tight" defaults for Se atom (to be pasted into control.in file)
  #
  ################################################################################
    species        Se
  #     global species definitions
      nucleus             34
      mass                78.96
  #
      l_hartree           6
  #
      cut_pot             4.0          2.0  1.0
      basis_dep_cutoff    1e-4
  #
      radial_base         55 7.0
      radial_multiplier   2
      angular_grids       specified
        division   0.0830  110
        division   0.1357  194
        division   0.7377  302
        division   0.8610  434
  #      division   0.9640  590
  #      division   1.0773  770
  #      division   2.5539  974
  #      outer_grid  974
        outer_grid  434
  ################################################################################
  #
  #  Definition of "minimal" basis
  #
  ################################################################################
  #     valence basis states
      valence      4  s   2.
      valence      4  p   4.
      valence      3  d  10.
  #     ion occupancy
      ion_occ      4  s   1.
      ion_occ      4  p   3.
      ion_occ      3  d  10.
  ################################################################################
  #
  #  Suggested additional basis functions. For production calculations,
  #  uncomment them one after another (the most important basis functions are
  #  listed first).
  #
  #  Constructed for dimers: 1.85 A, 2.15 A, 2.50 A, 3.00 A, 4.00 A
  #
  ################################################################################
  #  "First tier" - improvements: -336.21 meV to -36.85 meV
       hydro 3 d 4.3
       hydro 2 p 1.6
       hydro 4 f 7.2
       ionic 4 s auto
  #  "Second tier" - improvements: -14.39 meV to -1.49 meV
  #     hydro 5 g 10.4
  #     hydro 4 p 4.5
  #     hydro 4 d 6.2
  #     hydro 4 f 11.2
  #     hydro 1 s 0.65
  #     hydro 6 h 15.2
  #  "Third tier" - improvements: -0.46 meV and below
  #     hydro 5 g 14.4
  #     ionic 4 d auto
  #     hydro 4 f 22.4
  #     hydro 5 f 7.4
  #     hydro 5 p 8
  #     hydro 5 s 9.4
  #  "Fourth tier" - improvements: -0.12 meV and below
  #     hydro 5 d 11.6
  #     hydro 6 h 18
  #     hydro 4 p 4
  #     hydro 5 f 16
  #     hydro 4 s 3.9
  #
  #
  
  -----------------------------------------------------------------------
  Completed first pass over input file control.in .
  -----------------------------------------------------------------------
  
  
  -----------------------------------------------------------------------
  Parsing geometry.in (first pass over file, find array dimensions only).
  The contents of geometry.in will be repeated verbatim below
  unless switched off by setting 'verbatim_writeout .false.' .
  in the first line of geometry.in .
  -----------------------------------------------------------------------
  
  #
  # This is the geometry file that corresponds to the current relaxation step.
  # If you do not want this file to be written, set the "write_restart_geometry" flag to .false.
  #  aims_uuid : FCF02143-677A-4E4C-A373-7C4C032DBC82
  #
  lattice_vector      5.85110407      0.00000000      0.00000000
  lattice_vector      0.00000000      5.95726436      0.00000000
  lattice_vector      0.00000000      0.00000000      7.44923990
  atom_frac       0.50224838      0.00169212      0.00157626 Pd
  atom_frac       0.00167892      0.00168069      0.50238329 Pd
  atom_frac       0.00174248      0.50225708      0.00158395 Pd
  atom_frac       0.50231224      0.50224799      0.50237829 Pd
  atom_frac       0.61409904      0.11974068      0.40423971 Se
  atom_frac       0.89101252      0.88481126      0.90472309 Se
  atom_frac       0.11350747      0.38426777      0.60041170 Se
  atom_frac       0.39042751      0.62031733      0.09972664 Se
  atom_frac       0.39045126      0.88482442      0.60041312 Se
  atom_frac       0.11351616      0.11972708      0.09972355 Se
  atom_frac       0.89101072      0.62031732      0.40424750 Se
  atom_frac       0.61411320      0.38423618      0.90471279 Se
  #
  # What follows is the current estimated Hessian matrix constructed by the BFGS algorithm.
  # This is NOT the true Hessian matrix of the system.
  # If you do not want this information here, switch it off using the "hessian_to_restart_geometry" keyword.
  #
  trust_radius             0.0122098308
  hessian_block                1       1           6.268203          -0.433434          -2.382651          -0.433434           7.29247
  hessian_block                1       2          -0.608019           1.469351           0.394944          -0.443654           1.42958
  hessian_block                1       3          -0.932286           2.013572           0.587497           0.140638          -0.41298
  hessian_block                1       4           0.528456           0.194565          -0.077986           0.062939          -0.44683
  hessian_block                1       5           0.380884          -1.157090          -0.450330          -0.967449           1.40430
  hessian_block                1       6          -0.945817          -1.513599           0.057631           1.387243          -2.07099
  hessian_block                1       7          -0.825078           1.081588           0.517528           0.326456          -0.14813
  hessian_block                1       8           0.168659          -1.199763           0.061546          -0.077723          -2.36030
  hessian_block                1       9          -0.151390           0.044930           0.190380           0.276264          -1.57432
  hessian_block                1      10          -3.349309           2.641277           1.738938          -1.080942           1.49298
  hessian_block                1      11           0.677431          -1.634756          -0.579074           0.756780          -0.66476
  hessian_block                1      12           0.354177          -1.506639          -0.058422           0.052877          -2.29396
  hessian_block                2       2           7.176287           1.731757           3.238520           1.731757           9.05675
  hessian_block                2       3           2.559648           2.962209           1.851172          -0.759097          -0.94954
  hessian_block                2       4           0.184021           0.584697           0.143372          -0.441981           0.75204
  hessian_block                2       5          -2.893848          -0.982220          -1.658170           1.712236           0.81940
  hessian_block                2       6          -2.153666          -2.097496          -1.203989          -2.149228          -3.19348
  hessian_block                2       7           0.862804           0.413618           0.374282          -0.836831          -2.07924
  hessian_block                2       8          -0.986803          -1.491097          -0.893000          -0.443529          -1.04089
  hessian_block                2       9          -1.993677           0.430657          -0.916166          -0.723617          -2.47415
  hessian_block                2      10           2.506216           2.389719           1.638552           2.386556           3.65759
  hessian_block                2      11          -1.771518          -2.172109          -1.183758          -1.459848          -4.47751
  hessian_block                2      12          -1.315535          -1.326081          -0.867398          -0.485769           0.14647
  hessian_block                3       3           9.105327          -1.052085           3.936088          -1.052085           6.41645
  hessian_block                3       4           0.308856          -0.254737          -0.060881          -0.185317           0.05970
  hessian_block                3       5          -1.813834           0.382763          -1.040978           1.621726           0.08468
  hessian_block                3       6          -3.164590           0.959584          -1.975993          -2.811822          -1.18166
  hessian_block                3       7           1.404259          -0.152143           1.003388          -0.362422           0.04208
  hessian_block                3       8          -3.294199           0.013742          -1.529599          -1.498156          -0.16135
  hessian_block                3       9          -0.222185           0.332458           0.168239          -2.012855           0.23317
  hessian_block                3      10           3.470796          -0.115590           1.993230           4.396309          -2.87699
  hessian_block                3      11          -2.238339           0.453475          -1.262085          -2.061815           0.55102
  hessian_block                3      12          -3.617540           0.050993          -1.727044          -1.009343          -0.15756
  hessian_block                4       4           5.958317           0.163157          -1.965349           0.163157           7.00798
  hessian_block                4       5          -0.471052           0.574948           0.019463           0.074981          -2.23413
  hessian_block                4       6           0.005985           0.415210          -0.212282          -0.195517          -0.49789
  hessian_block                4       7          -2.025117          -0.852266           0.890296          -0.153888          -0.18703
  hessian_block                4       8          -0.271523          -0.222767          -0.342073           0.036254          -0.52047
  hessian_block                4       9          -0.268622           0.663626           0.156757           0.146951          -2.31200
  hessian_block                4      10          -0.488205          -0.340361           0.282150          -0.223027           0.92729
  hessian_block                4      11          -1.809944          -0.099935           0.610269          -0.823027          -1.40689
  hessian_block                4      12          -0.085261           0.262747          -0.230711           0.449590           0.50528
  hessian_block                5       5           5.933725          -1.298691          -0.911972          -1.298691           7.57531
  hessian_block                5       6           1.462063          -2.156566           0.082870           1.554728          -2.17545
  hessian_block                5       7          -1.021331           2.051135          -0.264530          -0.623520          -0.30923
  hessian_block                5       8           0.683082          -0.615376           0.619895           0.880791          -0.61627
  hessian_block                5       9          -1.378420          -0.349496           1.678028           0.576562          -3.23022
  hessian_block                5      10          -1.619711           2.700504          -0.126511          -1.560103           2.32265
  hessian_block                5      11           1.399655          -2.192763           0.443828           1.760780          -0.95795
  hessian_block                5      12           0.904699          -0.580239          -0.195036          -0.108947          -1.03606
  hessian_block                6       6           7.970519           3.016974           6.502247           3.016974           8.74642
  hessian_block                6       7          -1.297723          -1.593801          -2.724126           0.959706           0.75665
  hessian_block                6       8           0.917168           1.553734           2.225109           0.914535           1.12070
  hessian_block                6       9           0.019185           0.059479          -0.127582           2.144229           2.92350
  hessian_block                6      10          -4.779753          -4.534621          -8.608016          -4.069569          -5.48701
  hessian_block                6      11           1.959697           2.318284           3.486723           0.733489           2.22013
  hessian_block                6      12           1.572845           1.394550           2.588050           0.693508           0.48612
  hessian_block                7       7           6.093837           0.184786           1.021058           0.184786           6.20917
  hessian_block                7       8          -0.628167           0.076558           0.156991          -0.375231          -0.22507
  hessian_block                7       9           0.400993           0.570527          -0.241832          -1.643966           0.01501
  hessian_block                7      10           1.854890          -1.242648          -0.474180           1.837257          -1.04296
  hessian_block                7      11          -2.750106           0.854700          -1.569058          -0.148922          -2.00222
  hessian_block                7      12          -0.503349           0.246578           0.593968          -0.802056           0.61801
  hessian_block                8       8           5.228594           0.450624          -1.574645           0.450624           5.89937
  hessian_block                8       9           0.200388          -0.513248          -0.173696           1.034422           0.79299
  hessian_block                8      10          -1.202496          -1.178085           2.015110          -1.949625          -1.51862
  hessian_block                8      11           1.002867           0.410490          -1.288238           1.247984           1.62729
  hessian_block                8      12          -0.251659           1.393278           1.037199           1.101566          -1.35031
  hessian_block                9       9           5.025861          -0.569547          -0.784079          -0.569547           7.91265
  hessian_block                9      10           0.044399          -2.084034          -0.087118          -0.115033          -2.63914
  hessian_block                9      11          -0.219333           2.209677          -0.238687          -0.734689           1.74008
  hessian_block                9      12           0.108714           0.645915           0.600913           0.180338           0.25945
  hessian_block               10      10           9.351219           4.356617           5.712677           4.356617          10.88193
  hessian_block               10      11          -2.298051          -2.321380          -2.167730          -1.437883          -3.29256
  hessian_block               10      12          -1.924086          -1.657060          -1.837214          -1.154896          -0.77811
  hessian_block               11      11           6.722803           1.402473           1.239869           1.402473           8.81364
  hessian_block               11      12           0.890748           0.764678          -0.179474           0.771849          -0.50322
  hessian_block               12      12           5.432159           0.311283           0.275169           0.311283           5.75092
  hessian_block_lv             1       1          23.515205          -3.504588           5.365386          -3.504588          23.72492
  hessian_block_lv_atom        1       1          -0.155714          -0.137856          -0.443593           0.255637           0.47125
  hessian_block_lv_atom        1       2           0.230161           0.301032           0.745274           1.070108           1.07665
  hessian_block_lv_atom        1       3           0.492365           0.646795           1.148792           0.002599           0.13186
  hessian_block_lv_atom        1       4           0.025676           0.067366          -0.061063           0.747331           0.65671
  hessian_block_lv_atom        1       5          -0.243960          -0.381539          -0.336544           0.884365           1.16328
  hessian_block_lv_atom        1       6          -0.867331          -1.554213          -1.551162          -1.546509          -1.83797
  hessian_block_lv_atom        1       7           0.077887           0.108286           0.903365          -0.913231          -1.12261
  hessian_block_lv_atom        1       8          -0.413135          -0.366343          -0.765690          -0.252904          -0.31516
  hessian_block_lv_atom        1       9           0.147135           0.249385          -0.161740          -1.452666          -1.67339
  hessian_block_lv_atom        1      10           0.975657           1.711830           1.901910           1.732510           1.84313
  hessian_block_lv_atom        1      11          -0.233999          -0.338431          -1.088446          -0.338220          -0.09235
  hessian_block_lv_atom        1      12          -0.034744          -0.306312          -0.291105          -0.189021          -0.30138
  symmetry_n_params 39 3 36
  symmetry_params a1 b2 c3 x0 x1 x2 x3 x4 x5 x6 x7 x8 x9 x10 x11 x12 x13 x14 x15 x16 x17 x18 x19 x20 x21 x22 x23 x24 x25 x26 x27 x28 x
  symmetry_lv a1 , 0 , 0
  symmetry_lv 0 , b2 , 0
  symmetry_lv 0 , 0 , c3
  symmetry_frac x0 , x1 , x2
  symmetry_frac x3 , x4 , x5
  symmetry_frac x6 , x7 , x8
  symmetry_frac x9 , x10 , x11
  symmetry_frac x12 , x13 , x14
  symmetry_frac x15 , x16 , x17
  symmetry_frac x18 , x19 , x20
  symmetry_frac x21 , x22 , x23
  symmetry_frac x24 , x25 , x26
  symmetry_frac x27 , x28 , x29
  symmetry_frac x30 , x31 , x32
  symmetry_frac x33 , x34 , x35
  
  -----------------------------------------------------------------------
  Completed first pass over input file geometry.in .
  -----------------------------------------------------------------------
  

  Basic array size parameters:
  | Number of species                 :        2
  | Number of atoms                   :       12
  | Number of lattice vectors         :        3
  | Max. basis fn. angular momentum   :        4
  | Max. atomic/ionic basis occupied n:        5
  | Max. number of basis fn. types    :        3
  | Max. radial fns per species/type  :       10
  | Max. logarithmic grid size        :     1444
  | Max. radial integration grid size :      125
  | Max. angular integration grid size:      434
  | Max. angular grid division number :        8
  | Radial grid for Hartree potential :     1444
  | Number of spin channels           :        1

------------------------------------------------------------
          Reading file control.in.
------------------------------------------------------------
  XC: Using PBE gradient-corrected functionals.
  Using libMBD for calculating MBD and TS energies
  Spin treatment: No spin polarisation.
  Found k-point grid:        25        25        20
  Scalar relativistic treatment of kinetic energy: on-site free-atom approximation to ZORA.
  Max energy increase before discarding BFGS move:   0.100000E-01 eV
  Assuming qualitatively harmonic for steps shorter than   0.150000E-01 A.
  S.C.F. convergence parameters will be adjusted in iteration number     3 of each new s.c.f. cycle.
  Geometry relaxation: Modified BFGS - TRM (trust radius method) for lattice optimization.
  Convergence accuracy for geometry relaxation: Maximum force <   0.100000E-01 eV/A.
 
  Reading configuration options for species Pd                  .
  | Found nuclear charge :  46.0000
  | Found atomic mass :    106.420000000000      amu
  | Found l_max for Hartree potential  :   6
  | Found cutoff potl. onset [A], width [A], scale factor :    4.00000    2.00000    1.00000
  | Threshold for basis-dependent cutoff potential is   0.100000E-03
  | Found data for basic radial integration grid :    62 points, outermost radius =    7.000 A
  | Found multiplier for basic radial grid :   2
  | Found angular grid specification: user-specified.
  | Specified grid contains     6 separate shells.
  | Check grid settings after all constraints further below.
  | Found free-atom valence shell :  5 s   1.000
  | Found free-atom valence shell :  4 p   6.000
  | Found free-atom valence shell :  4 d   9.000
  | Found free-ion valence shell :  5 s   0.000
  | Found free-ion valence shell :  4 p   6.000
  | Found free-ion valence shell :  4 d   8.000
  | Found ionic basis function :  5 p , default cutoff radius.
  | Found hydrogenic basis function :  4 f   8.000
  | Found hydrogenic basis function :  5 g  10.000
  | Found hydrogenic basis function :  3 s   2.600
  | Found hydrogenic basis function :  3 d   2.500
  Species Pd                  : Missing cutoff potential type.
  Defaulting to exp(1/x)/(1-x)^2 type cutoff potential.
  Species Pd: No 'logarithmic' tag. Using default grid for free atom:
  | Default logarithmic grid data [bohr] : 0.1000E-03 0.1000E+03 0.1012E+01
  | Will include ionic basis functions of  2.0-fold positive Pd                   ion.
  Species Pd: On-site basis accuracy parameter (for Gram-Schmidt orthonormalisation) not specified.
  Using default value basis_acc =  0.1000000E-03.
  Species Pd                  : Using default innermost maximum threshold i_radial=  2 for radial functions.
  Species Pd                  : Default cutoff onset for free atom density etc. : 0.40000000E+01 AA.
  Species Pd                  : Basic radial grid will be enhanced according to radial_multiplier =   2, to contain   125 grid points.
 
  Reading configuration options for species Se                  .
  | Found nuclear charge :  34.0000
  | Found atomic mass :    78.9600000000000      amu
  | Found l_max for Hartree potential  :   6
  | Found cutoff potl. onset [A], width [A], scale factor :    4.00000    2.00000    1.00000
  | Threshold for basis-dependent cutoff potential is   0.100000E-03
  | Found data for basic radial integration grid :    55 points, outermost radius =    7.000 A
  | Found multiplier for basic radial grid :   2
  | Found angular grid specification: user-specified.
  | Specified grid contains     5 separate shells.
  | Check grid settings after all constraints further below.
  | Found free-atom valence shell :  4 s   2.000
  | Found free-atom valence shell :  4 p   4.000
  | Found free-atom valence shell :  3 d  10.000
  | Found free-ion valence shell :  4 s   1.000
  | Found free-ion valence shell :  4 p   3.000
  | Found free-ion valence shell :  3 d  10.000
  | Found hydrogenic basis function :  3 d   4.300
  | Found hydrogenic basis function :  2 p   1.600
  | Found hydrogenic basis function :  4 f   7.200
  | Found ionic basis function :  4 s , default cutoff radius.
  Species Se                  : Missing cutoff potential type.
  Defaulting to exp(1/x)/(1-x)^2 type cutoff potential.
  Species Se: No 'logarithmic' tag. Using default grid for free atom:
  | Default logarithmic grid data [bohr] : 0.1000E-03 0.1000E+03 0.1012E+01
  | Will include ionic basis functions of  2.0-fold positive Se                   ion.
  Species Se: On-site basis accuracy parameter (for Gram-Schmidt orthonormalisation) not specified.
  Using default value basis_acc =  0.1000000E-03.
  Species Se                  : Using default innermost maximum threshold i_radial=  2 for radial functions.
  Species Se                  : Default cutoff onset for free atom density etc. : 0.40000000E+01 AA.
  Species Se                  : Basic radial grid will be enhanced according to radial_multiplier =   2, to contain   111 grid points.
 
  Finished reading input file 'control.in'. Consistency checks are next.
 
  MPI_IN_PLACE appears to work with this MPI implementation.
  | Keeping use_mpi_in_place .true. (see manual).
  Target number of points in a grid batch is not set. Defaulting to  100
  Method for grid partitioning is not set. Defaulting to parallel hash+maxmin partitioning.
  Batch size limit is not set. Defaulting to    200
  By default, will store active basis functions for each batch.
  If in need of memory, prune_basis_once .false. can be used to disable this option.
  communication_type for Hartree potential was not specified.
  Defaulting to calc_hartree .
  Defaulting to Pulay charge density mixer.
  Pulay mixer: Number of relevant iterations not set.
  Defaulting to    8 iterations.
  Pulay mixer: Number of initial linear mixing iterations not set.
  Defaulting to    0 iterations.
  Work space size for distributed Hartree potential not set.
  Defaulting to   0.200000E+03 MB.
  Mixing parameter for charge density mixing has not been set.
  Using default: charge_mix_param =     0.0500.
  The mixing parameter will be adjusted in iteration number     3 of each s.c.f. cycle (i.e., each geometry step).
  Algorithm-dependent basis array size parameters:
  | n_max_pulay                         :        8
  Maximum number of self-consistency iterations not provided.
  Presetting  1000 iterations.
  Presetting      1001 iterations before the initial mixing cycle
  is restarted anyway using the sc_init_iter criterion / keyword.
  Presetting a factor      1.000 between actual scf density residual
  and density convergence criterion sc_accuracy_rho below which sc_init_iter
  takes no effect.
 * No s.c.f. convergence criteria (sc_accuracy_*) were provided in control.in.
 * The run will proceed with a reasonable default guess, but please check whether.
 * the s.c.f. cycles seem to take too much or too little time.
  No maximum number of relaxation steps, defaulting to     1000
  Using explicit Hessian from geometry.in.
  Maximum energy tolerance by which TRM/BFGS trajectory may increase over multiple steps:   0.300000E-02
  No trust radius initializer. Defaulting to   0.200000E+00 A.
  Unit cell relaxation: Unit cell will be relaxed fully.
  Unit cell relaxation: Analytical stress will be used.
  Analytical stress will be computed.
  Analytical stress calculation: Only the upper triangle is calculated.
                                 Final output is symmetrized.
  Analytical stress calculation: scf convergence accuracy of stress not set.
                                 Analytical stress self-consistency will not be checked explicitly.
                                 Be sure to set other criteria like sc_accuracy_rho tight enough.
 * Notice: The s.c.f. convergence criterion sc_accuracy_rho was not provided.
 * We used to stop in this case, and ask the user to provide reasonable
 * scf convergence criteria. However, this led some users to employ criteria
 * that led to extremely long run times, e.g., for simple relaxation.
 * We now preset a default value for sc_accuracy_rho if it is not set.
 * You may still wish to check if this setting is too tight or too loose for your needs.
 * Based on n_atoms, FHI-aims chose sc_accuracy_rho =  0.141421E-05 .
  Force calculation: scf convergence accuracy of forces not set.
  Defaulting to 'sc_accuracy_forces not_checked'.
  Handling of forces: Unphysical translation and rotation will be removed from forces.
  No accuracy limit for integral partition fn. given. Defaulting to  0.1000E-14.
  No threshold value for u(r) in integrations given. Defaulting to  0.1000E-05.
  No occupation type (smearing scheme) given. Defaulting to Gaussian broadening, width =  0.1000E-01 eV.
  The width will be adjusted in iteration number     3 of each s.c.f. cycle (i.e., each geometry step).
  S.C.F. convergence parameters will be adjusted in iteration number     3 of the first full s.c.f. cycle only.
  No accuracy for occupation numbers given. Defaulting to  0.1000E-12.
  No threshold value for occupation numbers given. Defaulting to  0.0000E+00.
  No accuracy for fermi level given. Defaulting to  0.1000E-19.
  Maximum # of iterations to find E_F not set. Defaulting to  200.
  Preferred method for the eigenvalue solver ('KS_method') not specified in 'control.in'.
  Defaulting to serial version, LAPACK (via ELSI), since more k-points than CPUs available.
  Will not use alltoall communication since running on < 1024 CPUs.
  Threshold for basis singularities not set.
  Default threshold for basis singularities:  0.1000E-04
  partition_type (choice of integration weights) for integrals was not specified.
  | Using a version of the partition function of Stratmann and coworkers ('stratmann_sparse').
  | At each grid point, the set of atoms used to build the partition table is smoothly restricted to
  | only those atoms whose free-atom density would be non-zero at that grid point.
  Partitioning for Hartree potential was not defined. Using partition_type for integrals.
  | Adjusted default value of keyword multip_moments_threshold to:       0.10000000E-11
  | This value may affect high angular momentum components of the Hartree potential in periodic systems.
  Angular momentum expansion for Kerker preconditioner not set explicitly.
  | Using default value of   0
  No explicit requirement for turning off preconditioner.
  | By default, it will be turned off when the charge convergence reaches
  | sc_accuracy_rho  =   0.141421E-05
  No special mixing parameter while Kerker preconditioner is on.
  Using default: charge_mix_param =     0.0500.
  No q(lm)/r^(l+1) cutoff set for long-range Hartree potential.
  | Using default value of  0.100000E-09 .
  | Verify using the multipole_threshold keyword.
  Defaulting to new monopole extrapolation.
  Density update method: automatic selection selected.
  Using density matrix based charge density update.
  Using density matrix based charge density update.
  Using packed matrix style: index .
  Geometry relaxation: A file "geometry.in.next_step" is written out by default after each step.
  | This file contains the geometry of the current relaxation step as well as
  | the current Hessian matrix needed to restart the relaxation algorithm.
  | If you do not want part or all of this information, use the keywords
  | "write_restart_geometry" or "hessian_to_restart_geometry" to switch the output off.
  Defaulting to use time-reversal symmetry for k-point grid.
  Charge integration errors on the 3D integration grid will be compensated
  by explicit normalization and distribution of residual charges.
  Use the "compensate_multipole_errors" flag to change this behaviour.
------------------------------------------------------------


------------------------------------------------------------
          Reading geometry description geometry.in.
------------------------------------------------------------
  Input structure read successfully.
  The structure contains       12 atoms,  and a total of        456.000 electrons.

  Input geometry:
  | Unit cell:
  |        5.85110407        0.00000000        0.00000000
  |        0.00000000        5.95726436        0.00000000
  |        0.00000000        0.00000000        7.44923990
  | Atomic structure:
  |       Atom                x [A]            y [A]            z [A]
  |    1: Species Pd            2.93870754        0.01008041        0.01174194
  |    2: Species Pd            0.00982354        0.01001231        3.74237365
  |    3: Species Pd            0.01019543        2.99207820        0.01179922
  |    4: Species Pd            2.93908119        2.99202405        3.74233640
  |    5: Species Se            3.59315739        0.71332689        3.01127858
  |    6: Species Se            5.21340698        5.27105458        6.73949934
  |    7: Species Se            0.66414402        2.28918469        4.47261079
  |    8: Species Se            2.28443199        3.69539432        0.74288767
  |    9: Species Se            2.28457096        5.27113298        4.47262137
  |   10: Species Se            0.66419487        0.71324587        0.74286465
  |   11: Species Se            5.21339645        3.69539426        3.01133661
  |   12: Species Se            3.59324024        2.28899650        6.73942261

  Lattice parameters for 3D lattice (in Angstroms) :     5.851104    5.957264    7.449240
  Angle(s) between unit vectors (in degrees)       :    90.000000   90.000000   90.000000

  | The smallest distance between any two atoms is         2.40072086 AA.
  | The first atom of this pair is atom number                      6 .
  | The second atom of this pair is atom number                    10 .
  | Wigner-Seitz cell of the first atom image           0     0     0 .
  | (The Wigner-Seitz cell of the second atom is 0 0 0  by definition.)

  Symmetry information by spglib:
  | Precision set to  0.1E-04
  | Number of Operations  : 1
  | Space group           : 1
  | International         : P1 c     H
  | Schoenflies           : C1^1

  Quantities derived from the lattice vectors:
  | Reciprocal lattice vector 1:  1.073846  0.000000  0.000000
  | Reciprocal lattice vector 2:  0.000000  1.054710  0.000000
  | Reciprocal lattice vector 3:  0.000000  0.000000  0.843467
  | Unit cell volume                               :   0.259655E+03  A^3

  Range separation radius for Ewald summation (hartree_convergence_parameter):      4.00090307 bohr.

  Fractional coordinates:
                         L1                L2                L3
       atom_frac         0.50224838        0.00169212        0.00157626  Pd
       atom_frac         0.00167892        0.00168069        0.50238329  Pd
       atom_frac         0.00174248        0.50225708        0.00158395  Pd
       atom_frac         0.50231224        0.50224799        0.50237829  Pd
       atom_frac         0.61409904        0.11974068        0.40423971  Se
       atom_frac         0.89101252        0.88481126        0.90472309  Se
       atom_frac         0.11350747        0.38426777        0.60041170  Se
       atom_frac         0.39042751        0.62031733        0.09972664  Se
       atom_frac         0.39045126        0.88482442        0.60041312  Se
       atom_frac         0.11351616        0.11972708        0.09972355  Se
       atom_frac         0.89101072        0.62031732        0.40424750  Se
       atom_frac         0.61411320        0.38423618        0.90471279  Se

  Number of empty states per atom not set in control.in - providing a guess from actual geometry.
  | Total number of empty states used during s.c.f. cycle:       66
  If you use a very high smearing, use empty_states (per atom!) in control.in to increase this value.

  Structure-dependent array size parameters: 
  | Maximum number of distinct radial functions  :       27
  | Maximum number of basis functions            :      468
  | Number of Kohn-Sham states (occupied + empty):      294
------------------------------------------------------------

------------------------------------------------------------
          Preparing all fixed parts of the calculation.
------------------------------------------------------------
  Determining machine precision:
    2.225073858507201E-308
  Setting up grids for atomic and cluster calculations.

  Creating wave function, potential, and density for free atoms.

  Species: Pd

  List of occupied orbitals and eigenvalues:
    n    l              occ      energy [Ha]    energy [eV]
    1    0           2.0000      -913.269104    -24851.3168
    2    0           2.0000      -130.434372     -3549.2998
    3    0           2.0000       -23.521804      -640.0609
    4    0           2.0000        -3.256918       -88.6253
    5    0           1.0000        -0.157260        -4.2793
    2    1           6.0000      -116.910756     -3181.3035
    3    1           6.0000       -19.103344      -519.8284
    4    1           6.0000        -1.998052       -54.3697
    3    2          10.0000       -12.098182      -329.2083
    4    2           9.0000        -0.243389        -6.6230


  Species: Se

  List of occupied orbitals and eigenvalues:
    n    l              occ      energy [Ha]    energy [eV]
    1    0           2.0000      -466.337810    -12689.6975
    2    0           2.0000       -59.202598     -1610.9847
    3    0           2.0000        -7.847116      -213.5309
    4    0           2.0000        -0.634372       -17.2621
    2    1           6.0000       -52.061107     -1416.6548
    3    1           6.0000        -5.620941      -152.9536
    4    1           4.0000        -0.238469        -6.4891
    3    2          10.0000        -1.951949       -53.1152

  Creating fixed part of basis set: Ionic, confined, hydrogenic.
 
  Pd                   ion:

  List of free ionic orbitals and eigenvalues:
    n    l      energy [Ha]    energy [eV]
    1    0      -914.099884    -24873.9234
    2    0      -131.248265     -3571.4470
    3    0       -24.332473      -662.1203
    4    0        -4.059276      -110.4585
    2    1      -117.724296     -3203.4411
    3    1       -19.913908      -541.8850
    4    1        -2.795328       -76.0648
    3    2       -12.908733      -351.2645
    4    2        -1.004248       -27.3270


  List of ionic basis orbitals and eigenvalues:
    n    l      energy [Ha]    energy [eV]    outer radius [A]
    5    1        -0.516938       -14.0666       5.427025

 
  Pd                   hydrogenic:
 
  List of hydrogenic basis orbitals: 
    n    l      effective z      eigenvalue [eV]  inner max. [A]     outer max. [A]     outer radius [A]   
    4    3         8.000000       -54.4226           1.054686           1.054686           4.629581
    5    4        10.000000       -54.4226           1.330451           1.330451           5.043202
    3    0         2.600000        -9.8948           0.150992           2.606197           5.493778
    3    2         2.500000        -9.3396           1.873517           1.873517           5.493778
 
 
  Se                   ion:

  List of free ionic orbitals and eigenvalues:
    n    l      energy [Ha]    energy [eV]
    1    0      -467.261007    -12714.8189
    2    0       -60.104893     -1635.5374
    3    0        -8.743714      -237.9286
    4    0        -1.414053       -38.4783
    2    1       -52.964156     -1441.2280
    3    1        -6.516916      -177.3343
    4    1        -0.961869       -26.1738
    3    2        -2.844511       -77.4031


  List of ionic basis orbitals and eigenvalues:
    n    l      energy [Ha]    energy [eV]    outer radius [A]
    4    0        -1.414046       -38.4782       4.083166

 
  Se                   hydrogenic:
 
  List of hydrogenic basis orbitals: 
    n    l      effective z      eigenvalue [eV]  inner max. [A]     outer max. [A]     outer radius [A]   
    3    2         4.300000       -27.9518           1.103845           1.103845           5.278265
    2    1         1.600000        -8.6828           1.326010           1.326010           5.475439
    4    3         7.200000       -44.0822           1.173422           1.173422           4.965294
 

  Adding cutoff potential to free-atom effective potential.
  Creating atomic-like basis functions for current effective potential.

  Species Pd                  :

  List of atomic basis orbitals and eigenvalues:
    n    l      energy [Ha]    energy [eV]    outer radius [A]
    1    0      -913.269104    -24851.3168       0.223280
    2    0      -130.434372     -3549.2998       0.615909
    3    0       -23.521804      -640.0609       1.414312
    4    0        -3.256918       -88.6253       3.581357
    5    0        -0.157260        -4.2793       5.427025
    2    1      -116.910756     -3181.3035       0.631154
    3    1       -19.103344      -519.8284       1.540671
    4    1        -1.998052       -54.3697       4.408641
    3    2       -12.098182      -329.2083       1.806051
    4    2        -0.243389        -6.6230       5.361084


  Species Se                  :

  List of atomic basis orbitals and eigenvalues:
    n    l      energy [Ha]    energy [eV]    outer radius [A]
    1    0      -466.337810    -12689.6975       0.309561
    2    0       -59.202598     -1610.9847       0.885812
    3    0        -7.847116      -213.5309       2.355489
    4    0        -0.634372       -17.2621       5.214131
    2    1       -52.061107     -1416.6548       0.907737
    3    1        -5.620941      -152.9536       2.694529
    4    1        -0.238469        -6.4891       5.408909
    3    2        -1.951949       -53.1152       4.083166

  Assembling full basis from fixed parts.
  | Species Pd :   atomic orbital   1 s accepted.
  | Species Pd :   atomic orbital   2 s accepted.
  | Species Pd :   atomic orbital   3 s accepted.
  | Species Pd :   atomic orbital   4 s accepted.
  | Species Pd :   atomic orbital   5 s accepted.
  | Species Pd :    hydro orbital   3 s accepted.
  | Species Pd :   atomic orbital   2 p accepted.
  | Species Pd :   atomic orbital   3 p accepted.
  | Species Pd :   atomic orbital   4 p accepted.
  | Species Pd :    ionic orbital   5 p accepted.
  | Species Pd :   atomic orbital   3 d accepted.
  | Species Pd :   atomic orbital   4 d accepted.
  | Species Pd :    hydro orbital   3 d accepted.
  | Species Pd :    hydro orbital   4 f accepted.
  | Species Pd :    hydro orbital   5 g accepted.
  | Species Se :   atomic orbital   1 s accepted.
  | Species Se :   atomic orbital   2 s accepted.
  | Species Se :   atomic orbital   3 s accepted.
  | Species Se :    ionic orbital   4 s accepted.
  | Species Se :   atomic orbital   4 s accepted.
  | Species Se :   atomic orbital   2 p accepted.
  | Species Se :   atomic orbital   3 p accepted.
  | Species Se :   atomic orbital   4 p accepted.
  | Species Se :    hydro orbital   2 p accepted.
  | Species Se :   atomic orbital   3 d accepted.
  | Species Se :    hydro orbital   3 d accepted.
  | Species Se :    hydro orbital   4 f accepted.
 
  Basis size parameters after reduction:
  | Total number of radial functions:       27
  | Total number of basis functions :      468
 
  Per-task memory consumption for arrays in subroutine allocate_ext:
  |           9.993344MB.
  Testing on-site integration grid accuracy.
  |  Species  Function  <phi|h_atom|phi> (log., in eV)  <phi|h_atom|phi> (rad., in eV)
           1        1             -24851.3167505682             -24851.3148165635
           1        2              -3549.2998457785              -3549.2998098031
           1        3               -640.0608571327               -640.0608534886
           1        4                -88.6252603131                -88.6252593316
           1        5                 -4.2849374515                 -4.2849400622
           1        6                  4.9432123540                  4.9432188418
           1        7              -3181.3035399559              -3181.3035364574
           1        8               -519.8284281886               -519.8284264063
           1        9                -54.3697495804                -54.3697489261
           1       10                  0.8628369484                  0.8628370487
           1       11               -329.2082917394               -329.2082912864
           1       12                 -6.6230267036                 -6.6230265076
           1       13                  5.4924295291                  5.4924115607
           1       14                 25.0740861942                 25.0740861175
           1       15                 38.8271273823                 38.8271278029
           2       16             -12689.6974611609             -12689.6967666984
           2       17              -1610.9846578580              -1610.9846472470
           2       18               -213.5308789869               -213.5308777267
           2       19                -17.0464428502                -17.0464426496
           2       20                  6.7356859379                  6.7356842047
           2       21              -1416.6548010133              -1416.6548002108
           2       22               -152.9535734377               -152.9535727493
           2       23                 -6.4896265677                 -6.4896303794
           2       24                  5.2703037283                  5.2701679583
           2       25                -53.1152220964                -53.1152219035
           2       26                  7.6186674138                  7.6186665630
           2       27                 23.1072799052                 23.1072803137

  Preparing densities etc. for the partition functions (integrals / Hartree potential).

  Preparations completed.
  max(cpu_time)          :      0.558 s.
  Wall clock time (cpu1) :      0.640 s.
------------------------------------------------------------

------------------------------------------------------------
          Begin self-consistency loop: Initialization.

          Date     :  20200420, Time     :  205938.829
------------------------------------------------------------

  Initializing index lists of integration centers etc. from given atomic structure:
  Mapping all atomic coordinates to central unit cell.

  Initializing the k-points
  Using symmetry for reducing the k-points
  | k-points reduced from:    12500 to     6251
  | Number of k-points                             :      6251
  The eigenvectors in the calculations are COMPLEX.
  | K-points in task   0:       260
  | K-points in task   1:       261
  | K-points in task   2:       261
  | K-points in task   3:       261
  | K-points in task   4:       261
  | K-points in task   5:       261
  | K-points in task   6:       261
  | K-points in task   7:       261
  | K-points in task   8:       261
  | K-points in task   9:       261
  | K-points in task  10:       261
  | K-points in task  11:       261
  | K-points in task  12:       260
  | K-points in task  13:       260
  | K-points in task  14:       260
  | K-points in task  15:       260
  | K-points in task  16:       260
  | K-points in task  17:       260
  | K-points in task  18:       260
  | K-points in task  19:       260
  | K-points in task  20:       260
  | K-points in task  21:       260
  | K-points in task  22:       260
  | K-points in task  23:       260
  | Number of basis functions in the Hamiltonian integrals :      5582
  | Number of basis functions in a single unit cell        :       468
  | Number of centers in hartree potential         :      1318
  | Number of centers in hartree multipole         :       766
  | Number of centers in electron density summation:       595
  | Number of centers in basis integrals           :       640
  | Number of centers in integrals                 :       236
  | Number of centers in hamiltonian               :       596
  | Consuming       8399 KiB for k_phase.
  | Number of super-cells (origin) [n_cells]                     :         567
  | Number of super-cells (after PM_index) [n_cells]             :          86
  | Number of super-cells in hamiltonian [n_cells_in_hamiltonian]:          86
  | Size of matrix packed + index [n_hamiltonian_matrix_size] :     1292352

  Initializing relaxation algorithms.
  | Estimated reciprocal-space cutoff momentum G_max:         2.42756707 bohr^-1 .
  | Reciprocal lattice points for long-range Hartree potential:     418
  Partitioning the integration grid into batches with parallel hashing+maxmin method.
  | Number of batches:     4182
  | Maximal batch size:     110
  | Minimal batch size:      50
  | Average batch size:      91.855
  | Standard deviation of batch sizes:      11.406

  Integration load balanced across    24 MPI tasks.
  Work distribution over tasks is as follows:
  Task     0 has      16023 integration points.
  Task     1 has      16040 integration points.
  Task     2 has      16006 integration points.
  Task     3 has      15986 integration points.
  Task     4 has      16030 integration points.
  Task     5 has      15969 integration points.
  Task     6 has      16029 integration points.
  Task     7 has      15990 integration points.
  Task     8 has      15984 integration points.
  Task     9 has      16042 integration points.
  Task    10 has      16039 integration points.
  Task    11 has      15974 integration points.
  Task    12 has      15968 integration points.
  Task    13 has      15991 integration points.
  Task    14 has      16037 integration points.
  Task    15 has      15968 integration points.
  Task    16 has      15990 integration points.
  Task    17 has      16027 integration points.
  Task    18 has      16027 integration points.
  Task    19 has      15985 integration points.
  Task    20 has      15971 integration points.
  Task    21 has      16003 integration points.
  Task    22 has      16033 integration points.
  Task    23 has      16024 integration points.
  Initializing partition tables, free-atom densities, potentials, etc. across the integration grid (initialize_grid_storage).
  | initialize_grid_storage: Actual outermost partition radius vs. multipole_radius_free
  | (-- VB: in principle, multipole_radius_free should be larger, hence this output)
  | Species        1: Confinement radius =              6.000000000000000 AA, multipole_radius_free =              6.058219618167466 AA.
  | Species        1: outer_partition_radius set to              6.058219618167466 AA .
  | Species        2: Confinement radius =              6.000000000000000 AA, multipole_radius_free =              6.037996416842453 AA.
  | Species        2: outer_partition_radius set to              6.037996416842453 AA .
  | The sparse table of interatomic distances needs       2897.83 kbyte instead of      3276.80 kbyte of memory.
  | Net number of integration points:   384136
  | of which are non-zero points    :   322167
  | Numerical average free-atom electrostatic potential    :    -17.05508547 eV
  Renormalizing the initial density to the exact electron count on the 3D integration grid.
  | Initial density: Formal number of electrons (from input files) :     456.0000000000
  | Integrated number of electrons on 3D grid     :     456.0000475676
  | Charge integration error                      :       0.0000475676
  | Normalization factor for density and gradient :       0.9999998957
  Renormalizing the free-atom superposition density to the exact electron count on the 3D integration grid.
  | Formal number of electrons (from input files) :     456.0000000000
  | Integrated number of electrons on 3D grid     :     456.0000475676
  | Charge integration error                      :       0.0000475676
  | Normalization factor for density and gradient :       0.9999998957
  Obtaining max. number of non-zero basis functions in each batch (get_n_compute_maxes).
  | Maximal number of non-zero basis functions:     1022 in task     0
  | Maximal number of non-zero basis functions:     1023 in task     1
  | Maximal number of non-zero basis functions:     1042 in task     2
  | Maximal number of non-zero basis functions:     1037 in task     3
  | Maximal number of non-zero basis functions:     1044 in task     4
  | Maximal number of non-zero basis functions:     1030 in task     5
  | Maximal number of non-zero basis functions:     1020 in task     6
  | Maximal number of non-zero basis functions:     1016 in task     7
  | Maximal number of non-zero basis functions:     1018 in task     8
  | Maximal number of non-zero basis functions:     1019 in task     9
  | Maximal number of non-zero basis functions:     1016 in task    10
  | Maximal number of non-zero basis functions:     1014 in task    11
  | Maximal number of non-zero basis functions:     1004 in task    12
  | Maximal number of non-zero basis functions:     1019 in task    13
  | Maximal number of non-zero basis functions:     1025 in task    14
  | Maximal number of non-zero basis functions:     1029 in task    15
  | Maximal number of non-zero basis functions:     1015 in task    16
  | Maximal number of non-zero basis functions:     1014 in task    17
  | Maximal number of non-zero basis functions:     1020 in task    18
  | Maximal number of non-zero basis functions:     1007 in task    19
  | Maximal number of non-zero basis functions:     1011 in task    20
  | Maximal number of non-zero basis functions:     1004 in task    21
  | Maximal number of non-zero basis functions:     1040 in task    22
  | Maximal number of non-zero basis functions:     1029 in task    23
  Allocating      545.867 MB for KS_eigenvector_complex
  Integrating Hamiltonian matrix: batch-based integration.
  Time summed over all CPUs for integration: real work       63.759 s, elapsed       64.531 s
  Integrating overlap matrix.
  Time summed over all CPUs for integration: real work       46.109 s, elapsed       46.809 s
  Decreasing sparse matrix size:
  | Tolerance:  0.1000E-12
  Hamiltonian matrix
  | Array has  1117761 nonzero elements out of  1292352 elements
  | Sparsity factor is 0.135
  Overlap matrix
  | Array has  1031108 nonzero elements out of  1292352 elements
  | Sparsity factor is 0.202
  New size of hamiltonian matrix:     1117845

  Updating Kohn-Sham eigenvalues and eigenvectors using ELSI and the (modified) LAPACK eigensolver.
  Singularity check in k-point 24, task 0 (analysis for other k-points/tasks may follow below):
  Overlap matrix is not singular
  | Lowest and highest eigenvalues :  0.5574E-03,  0.7263E+01
  Finished singularity check of overlap matrix
  | Time :     0.074 s
  Starting LAPACK eigensolver
  Finished Cholesky decomposition
  | Time :     0.018 s
  Finished transformation to standard eigenproblem
  | Time :     0.021 s
  Finished solving standard eigenproblem
  | Time :     0.072 s
  Finished back-transformation of eigenvectors
  | Time :     0.008 s

  Obtaining occupation numbers and chemical potential using ELSI.
  | Chemical potential (Fermi level):    -4.64308224 eV
  Writing Kohn-Sham eigenvalues.
  K-point:       1 at    0.000000    0.000000    0.000000 (in units of recip. lattice)

  State    Occupation    Eigenvalue [Ha]    Eigenvalue [eV]
      1       2.00000        -913.279532       -24851.60051
      2       2.00000        -913.279517       -24851.60008
      3       2.00000        -913.279514       -24851.60001
      4       2.00000        -913.279393       -24851.59672
      5       2.00000        -466.350396       -12690.03995
      6       2.00000        -466.350332       -12690.03818
      7       2.00000        -466.350278       -12690.03672
      8       2.00000        -466.350273       -12690.03659
      9       2.00000        -466.350267       -12690.03642
     10       2.00000        -466.350249       -12690.03593
     11       2.00000        -466.350218       -12690.03510
     12       2.00000        -466.350187       -12690.03425
     13       2.00000        -130.445117        -3549.59223
     14       2.00000        -130.445101        -3549.59180
     15       2.00000        -130.445098        -3549.59172
     16       2.00000        -130.444976        -3549.58841
     17       2.00000        -116.921525        -3181.59658
     18       2.00000        -116.921516        -3181.59634
     19       2.00000        -116.921509        -3181.59615
     20       2.00000        -116.921506        -3181.59606
     21       2.00000        -116.921500        -3181.59590
     22       2.00000        -116.921498        -3181.59583
     23       2.00000        -116.921462        -3181.59486
     24       2.00000        -116.921446        -3181.59443
     25       2.00000        -116.921443        -3181.59435
     26       2.00000        -116.921384        -3181.59275
     27       2.00000        -116.921376        -3181.59251
     28       2.00000        -116.921322        -3181.59106
     29       2.00000         -59.215612        -1611.33878
     30       2.00000         -59.215545        -1611.33698
     31       2.00000         -59.215491        -1611.33549
     32       2.00000         -59.215487        -1611.33538
     33       2.00000         -59.215480        -1611.33519
     34       2.00000         -59.215462        -1611.33469
     35       2.00000         -59.215431        -1611.33385
     36       2.00000         -59.215399        -1611.33299
     37       2.00000         -52.074127        -1417.00910
     38       2.00000         -52.074104        -1417.00847
     39       2.00000         -52.074062        -1417.00733
     40       2.00000         -52.074054        -1417.00710
     41       2.00000         -52.074037        -1417.00663
     42       2.00000         -52.074008        -1417.00585
     43       2.00000         -52.074002        -1417.00569
     44       2.00000         -52.073997        -1417.00554
     45       2.00000         -52.073988        -1417.00530
     46       2.00000         -52.073982        -1417.00513
     47       2.00000         -52.073979        -1417.00508
     48       2.00000         -52.073978        -1417.00504
     49       2.00000         -52.073971        -1417.00485
     50       2.00000         -52.073953        -1417.00435
     51       2.00000         -52.073946        -1417.00418
     52       2.00000         -52.073934        -1417.00385
     53       2.00000         -52.073930        -1417.00372
     54       2.00000         -52.073923        -1417.00354
     55       2.00000         -52.073922        -1417.00352
     56       2.00000         -52.073915        -1417.00333
     57       2.00000         -52.073905        -1417.00305
     58       2.00000         -52.073890        -1417.00265
     59       2.00000         -52.073875        -1417.00222
     60       2.00000         -52.073843        -1417.00136
     61       2.00000         -23.533313         -640.37403
     62       2.00000         -23.533296         -640.37357
     63       2.00000         -23.533293         -640.37348
     64       2.00000         -23.533163         -640.36995
     65       2.00000         -19.115109         -520.14859
     66       2.00000         -19.115092         -520.14813
     67       2.00000         -19.115086         -520.14796
     68       2.00000         -19.115021         -520.14619
     69       2.00000         -19.115003         -520.14569
     70       2.00000         -19.115003         -520.14569
     71       2.00000         -19.114956         -520.14441
     72       2.00000         -19.114869         -520.14206
     73       2.00000         -19.114483         -520.13156
     74       2.00000         -19.114468         -520.13114
     75       2.00000         -19.114465         -520.13106
     76       2.00000         -19.114339         -520.12763
     77       2.00000         -12.109916         -329.52759
     78       2.00000         -12.109898         -329.52710
     79       2.00000         -12.109895         -329.52701
     80       2.00000         -12.109881         -329.52662
     81       2.00000         -12.109863         -329.52613
     82       2.00000         -12.109859         -329.52604
     83       2.00000         -12.109763         -329.52342
     84       2.00000         -12.109728         -329.52246
     85       2.00000         -12.109534         -329.51719
     86       2.00000         -12.109518         -329.51676
     87       2.00000         -12.109513         -329.51662
     88       2.00000         -12.109478         -329.51565
     89       2.00000         -12.109461         -329.51519
     90       2.00000         -12.109460         -329.51516
     91       2.00000         -12.109394         -329.51338
     92       2.00000         -12.109386         -329.51317
     93       2.00000         -12.109378         -329.51294
     94       2.00000         -12.109375         -329.51287
     95       2.00000         -12.109331         -329.51166
     96       2.00000         -12.109249         -329.50942
     97       2.00000          -7.861934         -213.93410
     98       2.00000          -7.861855         -213.93196
     99       2.00000          -7.861794         -213.93031
    100       2.00000          -7.861793         -213.93029
    101       2.00000          -7.861782         -213.92997
    102       2.00000          -7.861761         -213.92941
    103       2.00000          -7.861727         -213.92847
    104       2.00000          -7.861692         -213.92752
    105       2.00000          -5.636340         -153.37260
    106       2.00000          -5.636274         -153.37081
    107       2.00000          -5.636210         -153.36908
    108       2.00000          -5.636195         -153.36868
    109       2.00000          -5.636192         -153.36859
    110       2.00000          -5.636171         -153.36802
    111       2.00000          -5.636128         -153.36685
    112       2.00000          -5.636097         -153.36600
    113       2.00000          -5.636096         -153.36597
    114       2.00000          -5.636005         -153.36350
    115       2.00000          -5.635941         -153.36175
    116       2.00000          -5.635930         -153.36147
    117       2.00000          -5.635916         -153.36108
    118       2.00000          -5.635902         -153.36070
    119       2.00000          -5.635840         -153.35900
    120       2.00000          -5.635813         -153.35828
    121       2.00000          -5.635417         -153.34750
    122       2.00000          -5.635340         -153.34541
    123       2.00000          -5.635289         -153.34403
    124       2.00000          -5.635284         -153.34387
    125       2.00000          -5.635274         -153.34360
    126       2.00000          -5.635257         -153.34313
    127       2.00000          -5.635228         -153.34235
    128       2.00000          -5.635192         -153.34138
    129       2.00000          -3.273984          -89.08965
    130       2.00000          -3.273960          -89.08899
    131       2.00000          -3.273955          -89.08886
    132       2.00000          -3.273766          -89.08371
    133       2.00000          -2.020303          -54.97525
    134       2.00000          -2.020281          -54.97464
    135       2.00000          -2.020229          -54.97323
    136       2.00000          -2.020008          -54.96722
    137       2.00000          -2.019288          -54.94764
    138       2.00000          -2.019282          -54.94746
    139       2.00000          -2.019230          -54.94605
    140       2.00000          -2.019010          -54.94006
    141       2.00000          -2.013051          -54.77790
    142       2.00000          -2.013041          -54.77763
    143       2.00000          -2.013035          -54.77747
    144       2.00000          -2.012868          -54.77292
    145       2.00000          -1.969357          -53.58894
    146       2.00000          -1.969241          -53.58578
    147       2.00000          -1.969165          -53.58371
    148       2.00000          -1.969138          -53.58298
    149       2.00000          -1.968281          -53.55966
    150       2.00000          -1.968205          -53.55758
    151       2.00000          -1.968128          -53.55549
    152       2.00000          -1.968108          -53.55495
    153       2.00000          -1.967819          -53.54708
    154       2.00000          -1.967785          -53.54616
    155       2.00000          -1.967709          -53.54408
    156       2.00000          -1.967699          -53.54382
    157       2.00000          -1.967694          -53.54368
    158       2.00000          -1.967645          -53.54234
    159       2.00000          -1.967566          -53.54021
    160       2.00000          -1.967557          -53.53994
    161       2.00000          -1.967402          -53.53573
    162       2.00000          -1.967363          -53.53467
    163       2.00000          -1.967351          -53.53434
    164       2.00000          -1.967305          -53.53309
    165       2.00000          -1.967292          -53.53273
    166       2.00000          -1.967284          -53.53252
    167       2.00000          -1.967266          -53.53202
    168       2.00000          -1.967242          -53.53138
    169       2.00000          -1.967242          -53.53137
    170       2.00000          -1.967225          -53.53093
    171       2.00000          -1.967220          -53.53078
    172       2.00000          -1.967209          -53.53048
    173       2.00000          -1.967170          -53.52941
    174       2.00000          -1.967163          -53.52922
    175       2.00000          -1.967149          -53.52886
    176       2.00000          -1.967122          -53.52812
    177       2.00000          -1.966729          -53.51743
    178       2.00000          -1.966682          -53.51614
    179       2.00000          -1.966619          -53.51444
    180       2.00000          -1.966607          -53.51411
    181       2.00000          -1.966374          -53.50776
    182       2.00000          -1.966335          -53.50670
    183       2.00000          -1.966269          -53.50489
    184       2.00000          -1.966263          -53.50474
    185       2.00000          -0.759578          -20.66916
    186       2.00000          -0.740837          -20.15919
    187       2.00000          -0.720611          -19.60881
    188       2.00000          -0.718850          -19.56091
    189       2.00000          -0.652593          -17.75796
    190       2.00000          -0.640668          -17.43346
    191       2.00000          -0.639266          -17.39532
    192       2.00000          -0.627530          -17.07595
    193       2.00000          -0.418480          -11.38743
    194       2.00000          -0.410702          -11.17578
    195       2.00000          -0.389396          -10.59601
    196       2.00000          -0.376450          -10.24373
    197       2.00000          -0.370684          -10.08683
    198       2.00000          -0.369223          -10.04706
    199       2.00000          -0.366739           -9.97947
    200       2.00000          -0.366181           -9.96430
    201       2.00000          -0.364760           -9.92563
    202       2.00000          -0.363036           -9.87872
    203       2.00000          -0.361256           -9.83027
    204       2.00000          -0.351807           -9.57316
    205       2.00000          -0.341753           -9.29958
    206       2.00000          -0.330797           -9.00143
    207       2.00000          -0.324434           -8.82830
    208       2.00000          -0.316403           -8.60977
    209       2.00000          -0.316252           -8.60565
    210       2.00000          -0.306260           -8.33377
    211       2.00000          -0.288647           -7.85449
    212       2.00000          -0.286395           -7.79320
    213       2.00000          -0.285242           -7.76183
    214       2.00000          -0.280075           -7.62122
    215       2.00000          -0.279114           -7.59507
    216       2.00000          -0.277252           -7.54442
    217       2.00000          -0.276243           -7.51695
    218       2.00000          -0.275717           -7.50264
    219       2.00000          -0.273694           -7.44761
    220       2.00000          -0.270347           -7.35652
    221       2.00000          -0.265363           -7.22091
    222       2.00000          -0.263616           -7.17336
    223       2.00000          -0.263329           -7.16554
    224       2.00000          -0.257757           -7.01393
    225       2.00000          -0.224355           -6.10500
    226       2.00000          -0.215300           -5.85862
    227       2.00000          -0.213040           -5.79710
    228       0.00000          -0.164999           -4.48985
    229       0.00000          -0.152217           -4.14204
    230       0.00000          -0.135269           -3.68087
    231       0.00000          -0.129932           -3.53564
    232       0.00000          -0.128574           -3.49868
    233       0.00000          -0.125709           -3.42071
    234       0.00000          -0.115504           -3.14302
    235       0.00000          -0.114820           -3.12441
    236       0.00000          -0.081997           -2.23126
    237       0.00000          -0.037423           -1.01834
    238       0.00000          -0.030361           -0.82616
    239       0.00000          -0.003113           -0.08472
    240       0.00000           0.021287            0.57924
    241       0.00000           0.025477            0.69326
    242       0.00000           0.026812            0.72958
    243       0.00000           0.057092            1.55356
    244       0.00000           0.089420            2.43324
    245       0.00000           0.102668            2.79374
    246       0.00000           0.111303            3.02872
    247       0.00000           0.118858            3.23430
    248       0.00000           0.122548            3.33471
    249       0.00000           0.125247            3.40815
    250       0.00000           0.125693            3.42027
    251       0.00000           0.137241            3.73452
    252       0.00000           0.151520            4.12307
    253       0.00000           0.160512            4.36776
    254       0.00000           0.171300            4.66132
    255       0.00000           0.176806            4.81115
    256       0.00000           0.189419            5.15435
    257       0.00000           0.191780            5.21861
    258       0.00000           0.198265            5.39507
    259       0.00000           0.219936            5.98475
    260       0.00000           0.231505            6.29957
    261       0.00000           0.247715            6.74066
    262       0.00000           0.257734            7.01330
    263       0.00000           0.267085            7.26775
    264       0.00000           0.280566            7.63460
    265       0.00000           0.280974            7.64569
[...]
  |                x                y                z                |
  |                                                                   |
  |  x        -0.00011379       0.00000193       0.00004419           |
  |  y         0.00000193       0.00000118      -0.00000100           |
  |  z         0.00004419      -0.00000100      -0.00005207           |
  |                                                                   |
  |  Pressure:       0.00005489   [eV/A**3]                           |
  |                                                                   |
  +-------------------------------------------------------------------+

 * Warning: Stress tensor is anisotropic. Be aware that pressure is an isotropic quantity.


  Leaving Libmbd.

  Timings for VdW correction (Tkatchenko-Scheffler 2009 or later):
  | CPU time:       53.341 s, Wall clock time:       53.340 s.
  Removing unitary transformations (pure translations, rotations) from forces on atoms.
  Atomic forces before filtering:
  | Net force on center of mass :   0.117007E-04  0.425126E-04  0.570321E-05 eV/A
  Atomic forces after filtering:
  | Net force on center of mass :   0.000000E+00  0.000000E+00 -0.139380E-17 eV/A

  Energy and forces in a compact form:
  | Total energy uncorrected      :         -0.108791111545297E+07 eV
  | Total energy corrected        :         -0.108791111648111E+07 eV  <-- do not rely on this value for anything but (periodic) metals
  | Electronic free energy        :         -0.108791111750924E+07 eV
  Total atomic forces (unitary forces cleaned) [eV/Ang]:
  |    1         -0.272993942714073E-03         -0.304961985670147E-02          0.125876348773486E-02
  |    2          0.183363731720322E-02         -0.614323067011592E-04         -0.211573265982970E-03
  |    3         -0.199687236020067E-02         -0.209563314669732E-02          0.164599599554900E-02
  |    4          0.467214883502641E-04         -0.101802637258414E-02         -0.104124256047417E-02
  |    5          0.113309132955980E-02         -0.857037158472331E-03         -0.206900279382525E-02
  |    6          0.352852437148879E-02          0.269996348323783E-02         -0.384009130551569E-02
  |    7         -0.302031891952744E-02          0.157642119105900E-02          0.269466241428589E-02
  |    8         -0.397940223388122E-02         -0.137570712179965E-02          0.299168716792300E-02
  |    9         -0.156986392920364E-02          0.170652242281588E-02          0.281132019201749E-02
  |   10         -0.502924042863237E-03          0.157066518515408E-02          0.149259152292688E-02
  |   11          0.136634928509198E-02         -0.149551034067918E-02         -0.154945291697518E-02
  |   12          0.343405163669623E-02          0.239939402136847E-02         -0.418365793766386E-02

  ------------------------------------ 
  Start decomposition of the XC Energy 
  ------------------------------------ 
  X and C from original XC functional choice 
  Hartree-Fock Energy :          0.000000000 Ha              0.000000000 eV
  X Energy            :      -1261.088385185 Ha         -34315.960937741 eV
  C Energy            :        -23.237085232 Ha           -632.313260906 eV
  Total XC Energy     :      -1284.325470417 Ha         -34948.274198647 eV
  ------------------------------------ 
  LDA X and C from self-consistent density 
  X Energy LDA        :      -1197.518514333 Ha         -32586.136739375 eV
  C Energy LDA        :        -42.068268055 Ha          -1144.735817280 eV
  ------------------------------------ 
  End decomposition of the XC Energy 
  ------------------------------------ 

------------------------------------------------------------
  Relaxation / MD: End force evaluation.       :  max(cpu_time)    wall_clock(cpu1)
  | Time for this force evaluation             :     1076.464 s        1077.275 s

------------------------------------------------------------
  Geometry optimization: Attempting to predict improved coordinates.

  +-------------------------------------------------------------------+
  | Generalized derivatives on lattice vectors [eV/A]                 |
  +-------------------------------------------------------------------+
  |lattice_vector      -0.00508662       0.00008614       0.00197544  |
  |lattice_vector       0.00008458       0.00005174      -0.00004379  |
  |lattice_vector       0.00153810      -0.00003473      -0.00181233  |
  +-------------------------------------------------------------------+
  | Forces on lattice vectors cleaned from atomic contributions [eV/A]|
  +-------------------------------------------------------------------+
  |lattice_vector       0.00508662      -0.00008614      -0.00197544  |
  |lattice_vector      -0.00008458      -0.00005174       0.00004379  |
  |lattice_vector      -0.00153810       0.00003473       0.00181233  |
  +-------------------------------------------------------------------+
  Symmetrized total atomic cartesian forces [eV/Ang]:
  |   1    -0.2729939427E-03    -0.3049619857E-02     0.1258763488E-02
  |   2     0.1833637317E-02    -0.6143230670E-04    -0.2115732660E-03
  |   3    -0.1996872360E-02    -0.2095633147E-02     0.1645995996E-02
  |   4     0.4672148835E-04    -0.1018026373E-02    -0.1041242560E-02
  |   5     0.1133091330E-02    -0.8570371585E-03    -0.2069002794E-02
  |   6     0.3528524371E-02     0.2699963483E-02    -0.3840091306E-02
  |   7    -0.3020318920E-02     0.1576421191E-02     0.2694662414E-02
  |   8    -0.3979402234E-02    -0.1375707122E-02     0.2991687168E-02
  |   9    -0.1569863929E-02     0.1706522423E-02     0.2811320192E-02
  |  10    -0.5029240429E-03     0.1570665185E-02     0.1492591523E-02
  |  11     0.1366349285E-02    -0.1495510341E-02    -0.1549452917E-02
  |  12     0.3434051637E-02     0.2399394021E-02    -0.4183657938E-02
  +-------------------------------------------------------------------+
  | Symmetrized forces on lattice vectors cleaned from symmetrized
  | atomic contributions [eV/A]|
  +-------------------------------------------------------------------+
  |lattice_vector       0.00508662       0.00000000       0.00000000  |
  |lattice_vector       0.00000000      -0.00005174       0.00000000  |
  |lattice_vector       0.00000000       0.00000000       0.00181233  |
  +-------------------------------------------------------------------+
  Removing unitary transformations (pure translations, rotations) from forces on atoms.
  Atomic forces before filtering:
  | Net force on center of mass :   0.000000E+00  0.000000E+00 -0.696899E-18 eV/A
  Atomic forces after filtering:
  | Net force on center of mass :   0.000000E+00  0.000000E+00 -0.696899E-18 eV/A
  Net remaining forces (excluding translations, rotations) in present geometry:
  || Forces on atoms   || =   0.418366E-02 eV/A.
  || Forces on lattice || =   0.508662E-02 eV/A^3.
  Maximum force component is  0.508662E-02 eV/A.
  Present geometry is converged.

  Symmetry-reduced parameters:
  | atomic   1          0.502139694745418E+00
  | atomic   2          0.220194977543061E-02
  | atomic   3          0.212943903028401E-02
  | atomic   4          0.213241102185977E-02
  | atomic   5          0.218248447739039E-02
  | atomic   6          0.502220344484829E+00
  | atomic   7          0.225351942031917E-02
  | atomic   8          0.502155631408630E+00
  | atomic   9          0.209153289821753E-02
  | atomic  10          0.502210445684194E+00
  | atomic  11          0.502198565116714E+00
  | atomic  12          0.502243498786150E+00
  | atomic  13          0.614301864423964E+00
  | atomic  14          0.120557903389815E+00
  | atomic  15          0.405443135892856E+00
  | atomic  16          0.889938837037203E+00
  | atomic  17          0.883770624306188E+00
  | atomic  18          0.905441211607545E+00
  | atomic  19          0.114384287163367E+00
  | atomic  20          0.383826086567705E+00
  | atomic  21          0.598922324617531E+00
  | atomic  22          0.390099660748257E+00
  | atomic  23          0.620553108438877E+00
  | atomic  24          0.989043326102724E-01
  | atomic  25          0.390026467625590E+00
  | atomic  26          0.883837667286201E+00
  | atomic  27          0.598934539074641E+00
  | atomic  28          0.114304771764922E+00
  | atomic  29          0.120477543763783E+00
  | atomic  30          0.989076500726306E-01
  | atomic  31          0.890013184037891E+00
  | atomic  32          0.620551193532494E+00
  | atomic  33          0.405448527424060E+00
  | atomic  34          0.614314766820037E+00
  | atomic  35          0.383807167379588E+00
  | atomic  36          0.905433350798491E+00
  | lattice  1          0.584598499437596E+01
  | lattice  2          0.595375535890161E+01
  | lattice  3          0.750822163930825E+01
  Symmetry-reduced forces:
  | atomic   1         -0.159591849266200E-02
  | atomic   2         -0.181566905644491E-01
  | atomic   3          0.945107525738202E-02
  | atomic   4          0.107194162414978E-01
  | atomic   5         -0.365752925231714E-03
  | atomic   6         -0.158853897395245E-02
  | atomic   7         -0.116736858534172E-01
  | atomic   8         -0.124768870774410E-01
  | atomic   9          0.123585027519957E-01
  | atomic  10          0.273133119810555E-03
  | atomic  11         -0.606107997127600E-02
  | atomic  12         -0.781787992432092E-02
  | atomic  13          0.662403490986408E-02
  | atomic  14         -0.510258957503245E-02
  | atomic  15         -0.155345315483880E-01
  | atomic  16          0.206277005280133E-01
  | atomic  17          0.160749220571659E-01
  | atomic  18         -0.288322566369924E-01
  | atomic  19         -0.176567390817873E-01
  | atomic  20          0.938562611415356E-02
  | atomic  21          0.202321226495720E-01
  | atomic  22         -0.232635257458558E-01
  | atomic  23         -0.819062364869380E-02
  | atomic  24          0.224622503322402E-01
  | atomic  25         -0.917740097333656E-02
  | atomic  26          0.101602170199258E-01
  | atomic  27          0.211080151007300E-01
  | atomic  28         -0.294008640788938E-02
  | atomic  29          0.935135626315128E-02
  | atomic  30          0.112067079710876E-01
  | atomic  31          0.798765741772402E-02
  | atomic  32         -0.890390270511144E-02
  | atomic  33         -0.116336359203224E-01
  | atomic  34          0.200754143380384E-01
  | atomic  35          0.142854050128390E-01
  | atomic  36         -0.314118310590315E-01
  | lattice  1          0.508661859531882E-02
  | lattice  2         -0.517428002269483E-04
  | lattice  3          0.181232819035251E-02
------------------------------------------------------------
  Final atomic structure:
                         x [A]             y [A]             z [A]
  lattice_vector         5.84598499        0.00000000        0.00000000
  lattice_vector         0.00000000        5.95375536        0.00000000
  lattice_vector         0.00000000        0.00000000        7.50822164

            atom        -2.91048387        0.01310987        0.01598830  Pd
            atom         0.01246604        0.01299398       -3.73743998  Pd
            atom         0.01317404       -2.96404358        0.01570369  Pd
            atom        -2.91007026       -2.96378796       -3.73726613  Pd
            atom        -2.25478551        0.71777226        3.04415693  Se
            atom        -0.64341591       -0.69200127       -0.70996834  Se
            atom         0.66868883        2.28520662       -3.01138008  Se
            atom         2.28051676       -2.25913396        0.74259565  Se
            atom         2.28008888       -0.69160211       -3.01128837  Se
            atom         0.66822398        0.71729382        0.74262056  Se
            atom        -0.64298128       -2.25914536        3.04419741  Se
            atom        -2.25471009        2.28509398       -0.71002736  Se

  Fractional coordinates:
                         L1                L2                L3
       atom_frac        -0.49786031        0.00220195        0.00212944  Pd
       atom_frac         0.00213241        0.00218248       -0.49777966  Pd
       atom_frac         0.00225352       -0.49784437        0.00209153  Pd
       atom_frac        -0.49778955       -0.49780143       -0.49775650  Pd
       atom_frac        -0.38569814        0.12055790        0.40544314  Se
       atom_frac        -0.11006116       -0.11622938       -0.09455879  Se
       atom_frac         0.11438429        0.38382609       -0.40107768  Se
       atom_frac         0.39009966       -0.37944689        0.09890433  Se
       atom_frac         0.39002647       -0.11616233       -0.40106546  Se
       atom_frac         0.11430477        0.12047754        0.09890765  Se
       atom_frac        -0.10998682       -0.37944881        0.40544853  Se
       atom_frac        -0.38568523        0.38380717       -0.09456665  Se
------------------------------------------------------------

------------------------------------------------------------------------------
  Final output of selected total energy values:

  The following output summarizes some interesting total energy values
  at the end of a run (AFTER all relaxation, molecular dynamics, etc.).

  | Total energy of the DFT / Hartree-Fock s.c.f. calculation      :       -1087911.115452973 eV
  | Final zero-broadening corrected energy (caution - metals only) :       -1087911.116481105 eV
  | For reference only, the value of 1 Hartree used in FHI-aims is :             27.211384500 eV
  | For reference only, the overall average (free atom contribution
  | + realspace contribution) of the electrostatic potential after
  | s.c.f. convergence is                                          :            -16.954848868 eV

  Before relying on these values, please be sure to understand exactly which
  total energy value is referred to by a given number. Different objects may
  all carry the same name 'total energy'. Definitions:

  Total energy of the DFT / Hartree-Fock s.c.f. calculation:
  | Note that this energy does not include ANY quantities calculated after the
  | s.c.f. cycle, in particular not ANY RPA, MP2, etc. many-body perturbation terms.

  Final zero-broadening corrected energy:
  | For metallic systems only, a broadening of the occupation numbers at the Fermi
  | level can be extrapolated back to zero broadening by an electron-gas inspired
  | formula. For all systems that are not real metals, this value can be
  | meaningless and should be avoided.

------------------------------------------------------------------------------
  Methods described in the following list of references were used in this FHI-aims run.
  If you publish the results, please make sure to cite these reference if they apply.
  FHI-aims is an academic code, and for our developers (often, Ph.D. students
  and postdocs), scientific credit in the community is essential.
  Thank you for helping us!

  For any use of FHI-aims, please cite:

    Volker Blum, Ralf Gehrke, Felix Hanke, Paula Havu, Ville Havu,
    Xinguo Ren, Karsten Reuter, and Matthias Scheffler
    'Ab initio molecular simulations with numeric atom-centered orbitals'
    Computer Physics Communications 180, 2175-2196 (2009)
    http://dx.doi.org/10.1016/j.cpc.2009.06.022


  For the analytical stress tensor used in your run, please cite:

    Franz Knuth, Christian Carbogno, Viktor Atalla, Volker Blum, Matthias Scheffler
    'All-electron formalism for total energy strain derivatives and
    stress tensor components for numeric atom-centered orbitals'
    Computer Physics Communications 190, 33-50 (2015).
    http://dx.doi.org/10.1016/j.cpc.2015.01.003


  The provided symmetry information was generated with SPGlib:

    Atsushi Togo, Yusuke Seto, Dimitar Pashov
    SPGlib 1.7.3 obtained from http://spglib.sourceforge.net
    Copyright (C) 2008 Atsushi Togo


  The ELSI infrastructure was used in your run to solve the Kohn-Sham electronic structure.
  Please check out http://elsi-interchange.org to learn more.
  If scalability is important for your project, please acknowledge ELSI by citing:

    V. W-z. Yu, F. Corsetti, A. Garcia, W. P. Huhn, M. Jacquelin, W. Jia,
    B. Lange, L. Lin, J. Lu, W. Mi, A. Seifitokaldani, A. Vazquez-Mayagoitia,
    C. Yang, H. Yang, and V. Blum
    'ELSI: A unified software interface for Kohn-Sham electronic structure solvers'
    Computer Physics Communications 222, 267-285 (2018).
    http://dx.doi.org/10.1016/j.cpc.2017.09.007


  For the real-space grid partitioning and parallelization used in this calculation, please cite:

    Ville Havu, Volker Blum, Paula Havu, and Matthias Scheffler,
    'Efficient O(N) integration for all-electron electronic structure calculation'
    'using numerically tabulated basis functions'
    Journal of Computational Physics 228, 8367-8379 (2009).
    http://dx.doi.org/10.1016/j.jcp.2009.08.008

  Of course, there are many other important community references, e.g., those cited in the
  above references. Our list is limited to references that describe implementations in the
  FHI-aims code. The reason is purely practical (length of this list) - please credit others as well.

------------------------------------------------------------
          Leaving FHI-aims.
          Date     :  20200420, Time     :  225045.056

          Computational steps:
          | Number of self-consistency cycles          :          108
          | Number of SCF (re)initializations          :            5
          | Number of relaxation steps                 :            4

          Detailed time accounting                     :  max(cpu_time)    wall_clock(cpu1)
          | Total time                                 :     6663.646 s        6667.320 s
          | Preparation time                           :        0.558 s           0.640 s
          | Boundary condition initalization           :        1.066 s           1.040 s
          | Grid partitioning                          :        1.729 s           1.728 s
          | Preloading free-atom quantities on grid    :        4.670 s           4.670 s
          | Free-atom superposition energy             :        0.715 s           0.715 s
          | Total time for integrations                :      305.507 s         305.484 s
          | Total time for solution of K.-S. equations :     3913.674 s        3918.808 s
          | Total time for EV reorthonormalization     :       45.505 s          45.097 s
          | Total time for density & force components  :     1787.768 s        1787.749 s
          | Total time for mixing & preconditioning    :       77.265 s          77.270 s
          | Total time for Hartree multipole update    :        0.451 s           0.454 s
          | Total time for Hartree multipole sum       :      244.106 s         244.103 s
          | Total time for total energy evaluation     :        6.117 s           6.248 s
          | Total time for scaled ZORA corrections     :        0.000 s           0.000 s
          | Total time for vdW correction              :      265.993 s         265.998 s

          Partial memory accounting:
          | Residual value for overall tracked memory usage across tasks:     0.000000 MB (should be 0.000000 MB)
          | Peak values for overall tracked memory usage:
          |   Minimum:     1138.828 MB (on task 13 after allocating d_wave)
          |   Maximum:     1143.694 MB (on task  7 after allocating d_wave)
          |   Average:     1141.063 MB
          | Largest tracked array allocation:
          |   Minimum:      545.867 MB (KS_eigenvector_complex on task  0)
          |   Maximum:      547.966 MB (KS_eigenvector_complex on task  1)
          |   Average:      546.829 MB
          Note:  These values currently only include a subset of arrays which are explicitly tracked.
          The "true" memory usage will be greater.

          Have a nice day.
------------------------------------------------------------
