------------------------------------------------------------
          Invoking FHI-aims ...

          When using FHI-aims, please cite the following reference:

          Volker Blum, Ralf Gehrke, Felix Hanke, Paula Havu,
          Ville Havu, Xinguo Ren, Karsten Reuter, and Matthias Scheffler,
          'Ab Initio Molecular Simulations with Numeric Atom-Centered Orbitals',
          Computer Physics Communications 180, 2175-2196 (2009)

          For any questions about FHI-aims, please visit the aimsclub website
          with its forums and wiki. Contributions to both the forums and the
          wiki are warmly encouraged - they are for you, and everyone is welcome there.

------------------------------------------------------------



  Date     :  20200316, Time     :  161330.231
  Time zero on CPU 1             :   0.264462000000000E+00  s.
  Internal wall clock time zero  :           353607210.231  s.

  FHI-aims created a unique identifier for this run for later identification
  aims_uuid : 45671714-F591-4EAE-ADBC-6C4B5A477C6E

  Build configuration of the current instance of FHI-aims
  -------------------------------------------------------
  FHI-aims version      : 200112
  Commit number         : 23daeca3f
  CMake host system     : Linux-3.10.0-693.21.1.el7.x86_64
  CMake version         : 3.13.3
  Fortran compiler      : /sw/installed/impi/2018.4.274-iccifort-2019.1.144-GCC-8.2.0-2.31.1/bin64/mpiifort (Intel) version 19.0.0.20181018
  Fortran compiler flags: -O3 -ip -fp-model precise
  C compiler            : /sw/installed/impi/2018.4.274-iccifort-2019.1.144-GCC-8.2.0-2.31.1/bin64/mpiicc (Intel) version 19.0.0.20181018
  C compiler flags      : -O3 -ip -fp-model precise
  Architecture          :
  Using MPI
  Using Scalapack
  Using C files
  Using LibXC
  Using SPGlib
  Using i-PI
  Using RLSY
  Linking against: /sw/installed/imkl/2019.1.144-iimpi-2019a/mkl/lib/intel64/libmkl_intel_lp64.so
                   /sw/installed/imkl/2019.1.144-iimpi-2019a/mkl/lib/intel64/libmkl_sequential.so
                   /sw/installed/imkl/2019.1.144-iimpi-2019a/mkl/lib/intel64/libmkl_core.so
                   /sw/installed/imkl/2019.1.144-iimpi-2019a/mkl/lib/intel64/libmkl_blacs_intelmpi_lp64.so
                   /sw/installed/imkl/2019.1.144-iimpi-2019a/mkl/lib/intel64/libmkl_scalapack_lp64.so

  Using       48 parallel tasks.
  Task        0 on host taurusi6309.taurus.hrsk.tu-dresden.de reporting.
  Task        1 on host taurusi6309.taurus.hrsk.tu-dresden.de reporting.
  Task        2 on host taurusi6309.taurus.hrsk.tu-dresden.de reporting.
  Task        3 on host taurusi6309.taurus.hrsk.tu-dresden.de reporting.
  Task        4 on host taurusi6309.taurus.hrsk.tu-dresden.de reporting.
  Task        5 on host taurusi6309.taurus.hrsk.tu-dresden.de reporting.
  Task        6 on host taurusi6309.taurus.hrsk.tu-dresden.de reporting.
  Task        7 on host taurusi6309.taurus.hrsk.tu-dresden.de reporting.
  Task        8 on host taurusi6309.taurus.hrsk.tu-dresden.de reporting.
  Task        9 on host taurusi6309.taurus.hrsk.tu-dresden.de reporting.
  Task       10 on host taurusi6309.taurus.hrsk.tu-dresden.de reporting.
  Task       11 on host taurusi6309.taurus.hrsk.tu-dresden.de reporting.
  Task       12 on host taurusi6309.taurus.hrsk.tu-dresden.de reporting.
  Task       13 on host taurusi6309.taurus.hrsk.tu-dresden.de reporting.
  Task       14 on host taurusi6309.taurus.hrsk.tu-dresden.de reporting.
  Task       15 on host taurusi6309.taurus.hrsk.tu-dresden.de reporting.
  Task       16 on host taurusi6309.taurus.hrsk.tu-dresden.de reporting.
  Task       17 on host taurusi6309.taurus.hrsk.tu-dresden.de reporting.
  Task       18 on host taurusi6309.taurus.hrsk.tu-dresden.de reporting.
  Task       19 on host taurusi6309.taurus.hrsk.tu-dresden.de reporting.
  Task       20 on host taurusi6309.taurus.hrsk.tu-dresden.de reporting.
  Task       21 on host taurusi6309.taurus.hrsk.tu-dresden.de reporting.
  Task       22 on host taurusi6309.taurus.hrsk.tu-dresden.de reporting.
  Task       23 on host taurusi6309.taurus.hrsk.tu-dresden.de reporting.
  Task       24 on host taurusi6311.taurus.hrsk.tu-dresden.de reporting.
  Task       25 on host taurusi6311.taurus.hrsk.tu-dresden.de reporting.
  Task       26 on host taurusi6311.taurus.hrsk.tu-dresden.de reporting.
  Task       27 on host taurusi6311.taurus.hrsk.tu-dresden.de reporting.
  Task       28 on host taurusi6311.taurus.hrsk.tu-dresden.de reporting.
  Task       29 on host taurusi6311.taurus.hrsk.tu-dresden.de reporting.
  Task       30 on host taurusi6311.taurus.hrsk.tu-dresden.de reporting.
  Task       31 on host taurusi6311.taurus.hrsk.tu-dresden.de reporting.
  Task       32 on host taurusi6311.taurus.hrsk.tu-dresden.de reporting.
  Task       33 on host taurusi6311.taurus.hrsk.tu-dresden.de reporting.
  Task       34 on host taurusi6311.taurus.hrsk.tu-dresden.de reporting.
  Task       35 on host taurusi6311.taurus.hrsk.tu-dresden.de reporting.
  Task       36 on host taurusi6311.taurus.hrsk.tu-dresden.de reporting.
  Task       37 on host taurusi6311.taurus.hrsk.tu-dresden.de reporting.
  Task       38 on host taurusi6311.taurus.hrsk.tu-dresden.de reporting.
  Task       39 on host taurusi6311.taurus.hrsk.tu-dresden.de reporting.
  Task       40 on host taurusi6311.taurus.hrsk.tu-dresden.de reporting.
  Task       41 on host taurusi6311.taurus.hrsk.tu-dresden.de reporting.
  Task       42 on host taurusi6311.taurus.hrsk.tu-dresden.de reporting.
  Task       43 on host taurusi6311.taurus.hrsk.tu-dresden.de reporting.
  Task       44 on host taurusi6311.taurus.hrsk.tu-dresden.de reporting.
  Task       45 on host taurusi6311.taurus.hrsk.tu-dresden.de reporting.
  Task       46 on host taurusi6311.taurus.hrsk.tu-dresden.de reporting.
  Task       47 on host taurusi6311.taurus.hrsk.tu-dresden.de reporting.

  Performing system and environment tests:
  | Environment variable OMP_NUM_THREADS correctly set to 1.
  | Maximum stacksize for task 0: unlimited
  | Maximum stacksize for task 1: unlimited
  | Maximum stacksize for task 2: unlimited
  | Maximum stacksize for task 3: unlimited
  | Maximum stacksize for task 4: unlimited
  | Maximum stacksize for task 5: unlimited
  | Maximum stacksize for task 6: unlimited
  | Maximum stacksize for task 7: unlimited
  | Maximum stacksize for task 8: unlimited
  | Maximum stacksize for task 9: unlimited
  | Maximum stacksize for task 10: unlimited
  | Maximum stacksize for task 11: unlimited
  | Maximum stacksize for task 12: unlimited
  | Maximum stacksize for task 13: unlimited
  | Maximum stacksize for task 14: unlimited
  | Maximum stacksize for task 15: unlimited
  | Maximum stacksize for task 16: unlimited
  | Maximum stacksize for task 17: unlimited
  | Maximum stacksize for task 18: unlimited
  | Maximum stacksize for task 19: unlimited
  | Maximum stacksize for task 20: unlimited
  | Maximum stacksize for task 21: unlimited
  | Maximum stacksize for task 22: unlimited
  | Maximum stacksize for task 23: unlimited
  | Maximum stacksize for task 24: unlimited
  | Maximum stacksize for task 25: unlimited
  | Maximum stacksize for task 26: unlimited
  | Maximum stacksize for task 27: unlimited
  | Maximum stacksize for task 28: unlimited
  | Maximum stacksize for task 29: unlimited
  | Maximum stacksize for task 30: unlimited
  | Maximum stacksize for task 31: unlimited
  | Maximum stacksize for task 32: unlimited
  | Maximum stacksize for task 33: unlimited
  | Maximum stacksize for task 34: unlimited
  | Maximum stacksize for task 35: unlimited
  | Maximum stacksize for task 36: unlimited
  | Maximum stacksize for task 37: unlimited
  | Maximum stacksize for task 38: unlimited
  | Maximum stacksize for task 39: unlimited
  | Maximum stacksize for task 40: unlimited
  | Maximum stacksize for task 41: unlimited
  | Maximum stacksize for task 42: unlimited
  | Maximum stacksize for task 43: unlimited
  | Maximum stacksize for task 44: unlimited
  | Maximum stacksize for task 45: unlimited
  | Maximum stacksize for task 46: unlimited
  | Maximum stacksize for task 47: unlimited
  | Current stacksize for task 0: unlimited
  | Current stacksize for task 1: unlimited
  | Current stacksize for task 2: unlimited
  | Current stacksize for task 3: unlimited
  | Current stacksize for task 4: unlimited
  | Current stacksize for task 5: unlimited
  | Current stacksize for task 6: unlimited
  | Current stacksize for task 7: unlimited
  | Current stacksize for task 8: unlimited
  | Current stacksize for task 9: unlimited
  | Current stacksize for task 10: unlimited
  | Current stacksize for task 11: unlimited
  | Current stacksize for task 12: unlimited
  | Current stacksize for task 13: unlimited
  | Current stacksize for task 14: unlimited
  | Current stacksize for task 15: unlimited
  | Current stacksize for task 16: unlimited
  | Current stacksize for task 17: unlimited
  | Current stacksize for task 18: unlimited
  | Current stacksize for task 19: unlimited
  | Current stacksize for task 20: unlimited
  | Current stacksize for task 21: unlimited
  | Current stacksize for task 22: unlimited
  | Current stacksize for task 23: unlimited
  | Current stacksize for task 24: unlimited
  | Current stacksize for task 25: unlimited
  | Current stacksize for task 26: unlimited
  | Current stacksize for task 27: unlimited
  | Current stacksize for task 28: unlimited
  | Current stacksize for task 29: unlimited
  | Current stacksize for task 30: unlimited
  | Current stacksize for task 31: unlimited
  | Current stacksize for task 32: unlimited
  | Current stacksize for task 33: unlimited
  | Current stacksize for task 34: unlimited
  | Current stacksize for task 35: unlimited
  | Current stacksize for task 36: unlimited
  | Current stacksize for task 37: unlimited
  | Current stacksize for task 38: unlimited
  | Current stacksize for task 39: unlimited
  | Current stacksize for task 40: unlimited
  | Current stacksize for task 41: unlimited
  | Current stacksize for task 42: unlimited
  | Current stacksize for task 43: unlimited
  | Current stacksize for task 44: unlimited
  | Current stacksize for task 45: unlimited
  | Current stacksize for task 46: unlimited
  | Current stacksize for task 47: unlimited
  | Checking for scalapack...
  | Testing pdtran()...
  | All pdtran() tests passed.

  Obtaining array dimensions for all initial allocations:
  
  -----------------------------------------------------------------------
  Parsing control.in (first pass over file, find array dimensions only).
  The contents of control.in will be repeated verbatim below
  unless switched off by setting 'verbatim_writeout .false.' .
  in the first line of control.in .
  -----------------------------------------------------------------------
  
  #===============================================================================
  # FHI-aims file: ./control.in
  # Created using the Atomic Simulation Environment (ASE)
  # Mon Mar 16 14:59:04 2020
  #===============================================================================
  xc                                 pbe
  # include_spin_orbit
  # vdw_correction_hirshfeld
  # many_body_dispersion_nl 	 beta=0.81
  spin                               none
  k_grid 	 	 7 7 5
  relativistic                       atomic_zora scalar
  ### SCF settings
  adjust_scf 	 always 	 3
  # frozen_core_scf 	 .true.
  # charge_mix_param  0.05
  # occupation_type 	 gaussian 	 0.01
  # sc_accuracy_eev   1E-3 	 	 # sum of eigenvalues convergence
  # sc_accuracy_etot  1E-6 	 	 # total energy convergence
  # sc_accuracy_rho   1E-3 	 	 # electron density convergence
  # elsi_restart 	 read_and_write 	 1000
  #===============================================================================
  
  ################################################################################
  #
  #  FHI-aims code project
  # Volker Blum, Fritz Haber Institute Berlin, 2009
  #
  #  Suggested "tight" defaults for Mo atom (to be pasted into control.in file)
  #
  ################################################################################
    species        Mo
  #     global species definitions
      nucleus             42
      mass                95.94
  #
      l_hartree           6
  #
      cut_pot             4.0  2.0  1.0
      basis_dep_cutoff    1e-4
  #
      radial_base         59 7.0
      radial_multiplier   2
      angular_grids specified
        division   0.3117   50
        division   0.6750  110
        division   1.0351  194
        division   1.2073  302
        division   1.6402  434
  #      division   1.9185  590
  #      division   2.0237  770
  #      division   2.0980  974
  #      division   2.7972 1202
  #      outer_grid  974
        outer_grid  434
  ################################################################################
  #
  #  Definition of "minimal" basis
  #
  ################################################################################
  #     valence basis states
      valence      5  s   1.
      valence      4  p   6.
      valence      4  d   5.
  #     ion occupancy
      ion_occ     5  s   0.
      ion_occ     4  p   6.
      ion_occ     4  d   4.
  ################################################################################
  #
  #  Suggested additional basis functions. For production calculations,
  #  uncomment them one after another (the most important basis functions are
  #  listed first).
  #
  #  Constructed for dimers: 1.675 A, 1.9 A, 2.375 A, 3.00 A, 4.00 A
  #
  ################################################################################
  #  "First tier"  - max. impr. -711.23  meV, min. impr. -21.07 meV
       hydro 4 f 8.4
       hydro 3 d 2.8
       ionic 5 p auto
       hydro 5 g 12
       ionic 5 s auto
  #  "Second tier" - max. impr. -39.38  meV, min. impr. -2.68 meV
       hydro 4 f 12.4
       hydro 3 d 3.3
       hydro 6 h 17.2
       hydro 4 f 7.6
       hydro 3 p 3.0
       hydro 1 s 0.65
  #  "Third tier"  - max. impr. -5.50 meV, min. impr. -0.47 meV
  #     hydro 4 f 29.2
  #     hydro 5 g 11.2
  #     hydro 3 d 6.8
  #     hydro 6 h 14.8
  #     hydro 2 p 2.3
  #     hydro 4 s 3.8
  #  "Fourth tier"  - max. impr. -0.58 meV, min. impr. -0.19 meV
  #     hydro 5 f 6.8
  #     hydro 5 d 14.8
  #     hydro 6 s 7.8
  #     hydro 5 g 20.8
  #     hydro 5 d 10.4
  #     hydro 5 p 9.8
  #  Further functions - -0.17 meV and below
  #     hydro 5 d 3.2
  ################################################################################
  #
  #  FHI-aims code project
  # Volker Blum, Fritz Haber Institute Berlin, 2009
  #
  #  Suggested "tight" defaults for S atom (to be pasted into control.in file)
  #
  #  Revised Jan 04, 2011, following tests (SiC) done by Lydia Nemec:
  #     d and g functions of tier 2 now enabled by default.
  #
  ################################################################################
    species        S
  #     global species definitions
      nucleus             16
      mass                32.065
  #
      l_hartree           6
  #
      cut_pot             4.0          2.0  1.0
      basis_dep_cutoff    1e-4
  #
      radial_base         44 7.0
      radial_multiplier   2
      angular_grids       specified
        division   0.4665  110
        division   0.5810  194
        division   0.7139  302
        division   0.8274  434
  #      division   0.9105  590
  #      division   1.0975  770
  #      division   1.2028  974
  #      outer_grid  974
        outer_grid  434
  ################################################################################
  #
  #  Definition of "minimal" basis
  #
  ################################################################################
  #     valence basis states
      valence      3  s   2.
      valence      3  p   4.
  #     ion occupancy
      ion_occ      3  s   1.
      ion_occ      3  p   3.
  ################################################################################
  #
  #  Suggested additional basis functions. For production calculations,
  #  uncomment them one after another (the most important basis functions are
  #  listed first).
  #
  #  Constructed for dimers: 1.6 A, 1.9 A, 2.5 A, 3.25 A, 4.0 A
  #
  ################################################################################
  #  "First tier" - improvements: -652.81 meV to -45.53 meV
       ionic 3 d auto
       hydro 2 p 1.8
       hydro 4 f 7
       ionic 3 s auto
  #  "Second tier" - improvements: -30.20 meV to -1.74 meV
       hydro 4 d 6.2
       hydro 5 g 10.8
       hydro 4 p 4.9
       hydro 5 f 10
       hydro 1 s 0.8
  #  "Third tier" - improvements: -1.04 meV to -0.20 meV
  #     hydro 3 d 3.9
  #     hydro 3 d 2.7
  #     hydro 5 g 12
  #     hydro 4 p 10.4
  #     hydro 5 f 12.4
  #     hydro 2 s 1.9
  #  "Fourth tier" - improvements: -0.35 meV to -0.06 meV
  #     hydro 4 d 10.4
  #     hydro 4 p 7.2
  #     hydro 4 d 10
  #     hydro 5 g 19.2
  #     hydro 4 s 12
  #
  ################################################################################
  #
  # For methods that use the localized form of the "resolution of identity" for
  # the two-electron Coulomb operator (RI_method LVL), particularly Hartree-Fock and
  # hybrid density functional calculations, the highest accuracy can be obtained by
  # uncommenting the line beginning with "for_aux"  below, thus adding an extra g radial
  # function to the construction of the product basis set for the expansion.
  # See Ref. New J. Phys. 17, 093020 (2015) for more information, particularly Figs. 1 and 6.
  #
  ################################################################################
  #
  # for_aux hydro 5 g 6.0
  
  -----------------------------------------------------------------------
  Completed first pass over input file control.in .
  -----------------------------------------------------------------------
  
  
  -----------------------------------------------------------------------
  Parsing geometry.in (first pass over file, find array dimensions only).
  The contents of geometry.in will be repeated verbatim below
  unless switched off by setting 'verbatim_writeout .false.' .
  in the first line of geometry.in .
  -----------------------------------------------------------------------
  
  #=======================================================
  # FHI-aims file: ./geometry.in
  # Created using the Atomic Simulation Environment (ASE)
  # Mon Mar 16 14:59:04 2020
  #=======================================================
  lattice_vector 3.1903157300000000 0.0000000000000000 0.0000000000000000
  lattice_vector -1.5951578649999993 2.7628944682730965 0.0000000000000000
  lattice_vector 0.0000000000000000 0.0000000000000000 14.8790043000000001
  atom_frac 0.3333330000000000 0.6666670000000000 0.2500000000000000 Mo
  atom_frac 0.6666670000000001 0.3333330000000000 0.7500000000000000 Mo
  atom_frac 0.3333330000000000 0.6666670000000000 0.8551740000000000 S
  atom_frac 0.6666670000000001 0.3333330000000000 0.1448260000000000 S
  atom_frac 0.6666660000000000 0.3333330000000000 0.3551739999999999 S
  atom_frac 0.3333340000000000 0.6666670000000000 0.6448260000000000 S
  
  -----------------------------------------------------------------------
  Completed first pass over input file geometry.in .
  -----------------------------------------------------------------------
  

  Basic array size parameters:
  | Number of species                 :        2
  | Number of atoms                   :        6
  | Number of lattice vectors         :        3
  | Max. basis fn. angular momentum   :        5
  | Max. atomic/ionic basis occupied n:        5
  | Max. number of basis fn. types    :        3
  | Max. radial fns per species/type  :       10
  | Max. logarithmic grid size        :     1436
  | Max. radial integration grid size :      119
  | Max. angular integration grid size:      434
  | Max. angular grid division number :        8
  | Radial grid for Hartree potential :     1436
  | Number of spin channels           :        1

------------------------------------------------------------
          Reading file control.in.
------------------------------------------------------------
  XC: Using PBE gradient-corrected functionals.
  Spin treatment: No spin polarisation.
  Found k-point grid:         7         7         5
  Scalar relativistic treatment of kinetic energy: on-site free-atom approximation to ZORA.
  S.C.F. convergence parameters will be adjusted in iteration number     3 of each new s.c.f. cycle.
 
  Reading configuration options for species Mo                  .
  | Found nuclear charge :  42.0000
  | Found atomic mass :    95.9400000000000      amu
  | Found l_max for Hartree potential  :   6
  | Found cutoff potl. onset [A], width [A], scale factor :    4.00000    2.00000    1.00000
  | Threshold for basis-dependent cutoff potential is   0.100000E-03
  | Found data for basic radial integration grid :    59 points, outermost radius =    7.000 A
  | Found multiplier for basic radial grid :   2
  | Found angular grid specification: user-specified.
  | Specified grid contains     6 separate shells.
  | Check grid settings after all constraints further below.
  | Found free-atom valence shell :  5 s   1.000
  | Found free-atom valence shell :  4 p   6.000
  | Found free-atom valence shell :  4 d   5.000
  | Found free-ion valence shell :  5 s   0.000
  | Found free-ion valence shell :  4 p   6.000
  | Found free-ion valence shell :  4 d   4.000
  | Found hydrogenic basis function :  4 f   8.400
  | Found hydrogenic basis function :  3 d   2.800
  | Found ionic basis function :  5 p , default cutoff radius.
  | Found hydrogenic basis function :  5 g  12.000
  | Found ionic basis function :  5 s , default cutoff radius.
  | Found hydrogenic basis function :  4 f  12.400
  | Found hydrogenic basis function :  3 d   3.300
  | Found hydrogenic basis function :  6 h  17.200
  | Found hydrogenic basis function :  4 f   7.600
  | Found hydrogenic basis function :  3 p   3.000
  | Found hydrogenic basis function :  1 s   0.650
  Species Mo                  : Missing cutoff potential type.
  Defaulting to exp(1/x)/(1-x)^2 type cutoff potential.
  Species Mo: No 'logarithmic' tag. Using default grid for free atom:
  | Default logarithmic grid data [bohr] : 0.1000E-03 0.1000E+03 0.1012E+01
  | Will include ionic basis functions of  2.0-fold positive Mo                   ion.
  Species Mo: On-site basis accuracy parameter (for Gram-Schmidt orthonormalisation) not specified.
  Using default value basis_acc =  0.1000000E-03.
  Species Mo                  : Using default innermost maximum threshold i_radial=  2 for radial functions.
  Species Mo                  : Default cutoff onset for free atom density etc. : 0.40000000E+01 AA.
  Species Mo                  : Basic radial grid will be enhanced according to radial_multiplier =   2, to contain   119 grid points.
 
  Reading configuration options for species S                   .
  | Found nuclear charge :  16.0000
  | Found atomic mass :    32.0650000000000      amu
  | Found l_max for Hartree potential  :   6
  | Found cutoff potl. onset [A], width [A], scale factor :    4.00000    2.00000    1.00000
  | Threshold for basis-dependent cutoff potential is   0.100000E-03
  | Found data for basic radial integration grid :    44 points, outermost radius =    7.000 A
  | Found multiplier for basic radial grid :   2
  | Found angular grid specification: user-specified.
  | Specified grid contains     5 separate shells.
  | Check grid settings after all constraints further below.
  | Found free-atom valence shell :  3 s   2.000
  | Found free-atom valence shell :  3 p   4.000
  | Found free-ion valence shell :  3 s   1.000
  | Found free-ion valence shell :  3 p   3.000
  | Found ionic basis function :  3 d , default cutoff radius.
  | Found hydrogenic basis function :  2 p   1.800
  | Found hydrogenic basis function :  4 f   7.000
  | Found ionic basis function :  3 s , default cutoff radius.
  | Found hydrogenic basis function :  4 d   6.200
  | Found hydrogenic basis function :  5 g  10.800
  | Found hydrogenic basis function :  4 p   4.900
  | Found hydrogenic basis function :  5 f  10.000
  | Found hydrogenic basis function :  1 s   0.800
  Species S                   : Missing cutoff potential type.
  Defaulting to exp(1/x)/(1-x)^2 type cutoff potential.
  Species S : No 'logarithmic' tag. Using default grid for free atom:
  | Default logarithmic grid data [bohr] : 0.1000E-03 0.1000E+03 0.1012E+01
  | Will include ionic basis functions of  2.0-fold positive S                    ion.
  Species S : On-site basis accuracy parameter (for Gram-Schmidt orthonormalisation) not specified.
  Using default value basis_acc =  0.1000000E-03.
  Species S                   : Using default innermost maximum threshold i_radial=  2 for radial functions.
  Species S                   : Default cutoff onset for free atom density etc. : 0.40000000E+01 AA.
  Species S                   : Basic radial grid will be enhanced according to radial_multiplier =   2, to contain    89 grid points.
 
  Finished reading input file 'control.in'. Consistency checks are next.
 
  MPI_IN_PLACE appears to work with this MPI implementation.
  | Keeping use_mpi_in_place .true. (see manual).
  Target number of points in a grid batch is not set. Defaulting to  100
  Method for grid partitioning is not set. Defaulting to parallel hash+maxmin partitioning.
  Batch size limit is not set. Defaulting to    200
  By default, will store active basis functions for each batch.
  If in need of memory, prune_basis_once .false. can be used to disable this option.
  communication_type for Hartree potential was not specified.
  Defaulting to calc_hartree .
  Defaulting to Pulay charge density mixer.
  Pulay mixer: Number of relevant iterations not set.
  Defaulting to    8 iterations.
  Pulay mixer: Number of initial linear mixing iterations not set.
  Defaulting to    0 iterations.
  Work space size for distributed Hartree potential not set.
  Defaulting to   0.200000E+03 MB.
  Mixing parameter for charge density mixing has not been set.
  Using default: charge_mix_param =     0.0500.
  The mixing parameter will be adjusted in iteration number     3 of each s.c.f. cycle (i.e., each geometry step).
  Algorithm-dependent basis array size parameters:
  | n_max_pulay                         :        8
  Maximum number of self-consistency iterations not provided.
  Presetting  1000 iterations.
  Presetting      1001 iterations before the initial mixing cycle
  is restarted anyway using the sc_init_iter criterion / keyword.
  Presetting a factor      1.000 between actual scf density residual
  and density convergence criterion sc_accuracy_rho below which sc_init_iter
  takes no effect.
 * No s.c.f. convergence criteria (sc_accuracy_*) were provided in control.in.
 * The run will proceed with a reasonable default guess, but please check whether.
 * the s.c.f. cycles seem to take too much or too little time.
  Calculation of forces was not defined in control.in. No forces will be calculated.
  Geometry relaxation not requested: no relaxation will be performed.
 * Notice: The s.c.f. convergence criterion sc_accuracy_rho was not provided.
 * We used to stop in this case, and ask the user to provide reasonable
 * scf convergence criteria. However, this led some users to employ criteria
 * that led to extremely long run times, e.g., for simple relaxation.
 * We now preset a default value for sc_accuracy_rho if it is not set.
 * You may still wish to check if this setting is too tight or too loose for your needs.
 * Based on n_atoms, FHI-aims chose sc_accuracy_rho =  0.100000E-05 .
  No accuracy limit for integral partition fn. given. Defaulting to  0.1000E-14.
  No threshold value for u(r) in integrations given. Defaulting to  0.1000E-05.
  No occupation type (smearing scheme) given. Defaulting to Gaussian broadening, width =  0.1000E-01 eV.
  The width will be adjusted in iteration number     3 of each s.c.f. cycle (i.e., each geometry step).
  S.C.F. convergence parameters will be adjusted in iteration number     3 of the first full s.c.f. cycle only.
  No accuracy for occupation numbers given. Defaulting to  0.1000E-12.
  No threshold value for occupation numbers given. Defaulting to  0.0000E+00.
  No accuracy for fermi level given. Defaulting to  0.1000E-19.
  Maximum # of iterations to find E_F not set. Defaulting to  200.
  Preferred method for the eigenvalue solver ('KS_method') not specified in 'control.in'.
  Defaulting to serial version, LAPACK (via ELSI), since more k-points than CPUs available.
  Will not use alltoall communication since running on < 1024 CPUs.
  Threshold for basis singularities not set.
  Default threshold for basis singularities:  0.1000E-04
  partition_type (choice of integration weights) for integrals was not specified.
  | Using a version of the partition function of Stratmann and coworkers ('stratmann_sparse').
  | At each grid point, the set of atoms used to build the partition table is smoothly restricted to
  | only those atoms whose free-atom density would be non-zero at that grid point.
  Partitioning for Hartree potential was not defined. Using partition_type for integrals.
  | Adjusted default value of keyword multip_moments_threshold to:       0.10000000E-11
  | This value may affect high angular momentum components of the Hartree potential in periodic systems.
  Angular momentum expansion for Kerker preconditioner not set explicitly.
  | Using default value of   0
  No explicit requirement for turning off preconditioner.
  | By default, it will be turned off when the charge convergence reaches
  | sc_accuracy_rho  =   0.100000E-05
  No special mixing parameter while Kerker preconditioner is on.
  Using default: charge_mix_param =     0.0500.
  No q(lm)/r^(l+1) cutoff set for long-range Hartree potential.
  | Using default value of  0.100000E-09 .
  | Verify using the multipole_threshold keyword.
  Defaulting to new monopole extrapolation.
  Density update method: automatic selection selected.
  Using density matrix based charge density update.
  Using density matrix based charge density update.
  Using packed matrix style: index .
  Defaulting to use time-reversal symmetry for k-point grid.
  Charge integration errors on the 3D integration grid will be compensated
  by explicit normalization and distribution of residual charges.
  Use the "compensate_multipole_errors" flag to change this behaviour.
------------------------------------------------------------


------------------------------------------------------------
          Reading geometry description geometry.in.
------------------------------------------------------------
  Input structure read successfully.
  The structure contains        6 atoms,  and a total of        148.000 electrons.

  Input geometry:
  | Unit cell:
  |        3.19031573        0.00000000        0.00000000
  |       -1.59515786        2.76289447        0.00000000
  |        0.00000000        0.00000000       14.87900430
  | Atomic structure:
  |       Atom                x [A]            y [A]            z [A]
  |    1: Species Mo           -0.00000160        1.84193057        3.71975108
  |    2: Species Mo            1.59515946        0.92096390       11.15925323
  |    3: Species S            -0.00000160        1.84193057       12.72413762
  |    4: Species S             1.59515946        0.92096390        2.15486668
  |    5: Species S             1.59515627        0.92096390        5.28463547
  |    6: Species S             0.00000160        1.84193057        9.59436883

  Lattice parameters for 3D lattice (in Angstroms) :     3.190316    3.190316   14.879004
  Angle(s) between unit vectors (in degrees)       :    90.000000   90.000000  120.000000

  | The smallest distance between any two atoms is         2.41693219 AA.
  | The first atom of this pair is atom number                      5 .
  | The second atom of this pair is atom number                     1 .
  | Wigner-Seitz cell of the first atom image           1     0     0 .
  | (The Wigner-Seitz cell of the second atom is 0 0 0  by definition.)

  Symmetry information by spglib:
  | Precision set to  0.1E-04
  | Number of Operations  : 8
  | Space group           : 63
  | International         : Cmcm
  | Schoenflies           : D2h^17

  Quantities derived from the lattice vectors:
  | Reciprocal lattice vector 1:  1.969456  1.137066  0.000000
  | Reciprocal lattice vector 2:  0.000000  2.274131  0.000000
  | Reciprocal lattice vector 3:  0.000000  0.000000  0.422285
  | Unit cell volume                               :   0.131151E+03  A^3

  Range separation radius for Ewald summation (hartree_convergence_parameter):      4.01572208 bohr.

  Fractional coordinates:
                         L1                L2                L3
       atom_frac         0.33333300        0.66666700        0.25000000  Mo
       atom_frac         0.66666700        0.33333300        0.75000000  Mo
       atom_frac         0.33333300        0.66666700        0.85517400  S
       atom_frac         0.66666700        0.33333300        0.14482600  S
       atom_frac         0.66666600        0.33333300        0.35517400  S
       atom_frac         0.33333400        0.66666700        0.64482600  S

  Number of empty states per atom not set in control.in - providing a guess from actual geometry.
  | Total number of empty states used during s.c.f. cycle:       23
  If you use a very high smearing, use empty_states (per atom!) in control.in to increase this value.

  Structure-dependent array size parameters: 
  | Maximum number of distinct radial functions  :       35
  | Maximum number of basis functions            :      366
  | Number of Kohn-Sham states (occupied + empty):       97
------------------------------------------------------------

------------------------------------------------------------
          Preparing all fixed parts of the calculation.
------------------------------------------------------------
  Determining machine precision:
    2.225073858507201E-308
  Setting up grids for atomic and cluster calculations.

  Creating wave function, potential, and density for free atoms.

  Species: Mo

  List of occupied orbitals and eigenvalues:
    n    l              occ      energy [Ha]    energy [eV]
    1    0           2.0000      -745.344654    -20281.8600
    2    0           2.0000      -103.288246     -2810.6162
    3    0           2.0000       -17.516687      -476.6533
    4    0           2.0000        -2.358559       -64.1796
    5    0           1.0000        -0.145159        -3.9500
    2    1           6.0000       -92.308627     -2511.8455
    3    1           6.0000       -13.936005      -379.2180
    4    1           6.0000        -1.408138       -38.3174
    3    2          10.0000        -8.119011      -220.9295
    4    2           5.0000        -0.132984        -3.6187


  Species: S

  List of occupied orbitals and eigenvalues:
    n    l              occ      energy [Ha]    energy [eV]
    1    0           2.0000       -88.680731     -2413.1255
    2    0           2.0000        -7.781719      -211.7513
    3    0           2.0000        -0.633662       -17.2428
    2    1           6.0000        -5.751976      -156.5192
    3    1           4.0000        -0.257086        -6.9957

  Creating fixed part of basis set: Ionic, confined, hydrogenic.
 
  Mo                   ion:

  List of free ionic orbitals and eigenvalues:
    n    l      energy [Ha]    energy [eV]
    1    0      -746.048685    -20301.0176
    2    0      -103.980912     -2829.4646
    3    0       -18.206601      -495.4268
    4    0        -3.040545       -82.7374
    2    1       -93.001013     -2530.6863
    3    1       -14.625827      -397.9890
    4    1        -2.084855       -56.7318
    3    2        -8.808854      -239.7011
    4    2        -0.765435       -20.8285


  List of ionic basis orbitals and eigenvalues:
    n    l      energy [Ha]    energy [eV]    outer radius [A]
    5    1        -0.465587       -12.6693       5.456393
    5    0        -0.650331       -17.6964       5.390095

 
  Mo                   hydrogenic:
 
  List of hydrogenic basis orbitals: 
    n    l      effective z      eigenvalue [eV]  inner max. [A]     outer max. [A]     outer radius [A]   
    4    3         8.400000       -60.0010           1.009788           1.009788           4.487018
    3    2         2.800000       -11.8048           1.687401           1.687401           5.456393
    5    4        12.000000       -78.3687           1.100005           1.100005           4.432498
    4    3        12.400000      -130.7506           0.682864           0.682864           3.428897
    3    2         3.300000       -16.4532           1.439455           1.439455           5.456393
    6    5        17.200000      -111.8085           1.113535           1.113535           4.169676
    4    3         7.600000       -49.1164           1.113535           1.113535           4.828511
    3    1         3.000000       -13.5316           0.528251           2.102736           5.456393
    1    0         0.650000        -5.7375           0.810333           0.810333           5.456393
 
 
  S                    ion:

  List of free ionic orbitals and eigenvalues:
    n    l      energy [Ha]    energy [eV]
    1    0       -89.703778     -2440.9640
    2    0        -8.775428      -238.7916
    3    0        -1.470343       -40.0101
    2    1        -6.747660      -183.6132
    3    1        -1.048627       -28.5346


  List of ionic basis orbitals and eigenvalues:
    n    l      energy [Ha]    energy [eV]    outer radius [A]
    3    2        -0.495605       -13.4861       5.386362
    3    0        -1.470336       -40.0099       3.967934

 
  S                    hydrogenic:
 
  List of hydrogenic basis orbitals: 
    n    l      effective z      eigenvalue [eV]  inner max. [A]     outer max. [A]     outer radius [A]   
    2    1         1.800000       -11.0118           1.168531           1.168531           5.452614
    4    3         7.000000       -41.6672           1.212182           1.212182           5.066981
    4    2         6.200000       -32.6848           0.582121           1.814567           5.386362
    5    4        10.800000       -63.4785           1.227092           1.227092           4.766538
    4    1         4.900000       -20.2928           0.304525           2.524192           5.452614
    5    3        10.000000       -54.4226           0.641929           1.727969           5.320915
    1    0         0.800000        -8.7059           0.657818           0.657818           5.386362
 

  Adding cutoff potential to free-atom effective potential.
  Creating atomic-like basis functions for current effective potential.

  Species Mo                  :

  List of atomic basis orbitals and eigenvalues:
    n    l      energy [Ha]    energy [eV]    outer radius [A]
    1    0      -745.344654    -20281.8600       0.247552
    2    0      -103.288246     -2810.6162       0.682864
    3    0       -17.516687      -476.6533       1.626637
    4    0        -2.358559       -64.1796       4.220963
    5    0        -0.145159        -3.9500       5.456393
    2    1       -92.308627     -2511.8455       0.699766
    3    1       -13.936005      -379.2180       1.793761
    4    1        -1.408138       -38.3174       4.828511
    3    2        -8.119011      -220.9295       2.181285
    4    2        -0.132984        -3.6187       5.390095


  Species S                   :

  List of atomic basis orbitals and eigenvalues:
    n    l      energy [Ha]    energy [eV]    outer radius [A]
    1    0       -88.680731     -2413.1255       0.682391
    2    0        -7.781719      -211.7513       2.289014
    3    0        -0.633662       -17.2428       5.256262
    2    1        -5.751976      -156.5192       2.555240
    3    1        -0.257086        -6.9957       5.386362

  Assembling full basis from fixed parts.
  | Species Mo :   atomic orbital   1 s accepted.
  | Species Mo :   atomic orbital   2 s accepted.
  | Species Mo :   atomic orbital   3 s accepted.
  | Species Mo :   atomic orbital   4 s accepted.
  | Species Mo :    ionic orbital   5 s accepted.
  | Species Mo :   atomic orbital   5 s accepted.
  | Species Mo :    hydro orbital   1 s accepted.
  | Species Mo :   atomic orbital   2 p accepted.
  | Species Mo :   atomic orbital   3 p accepted.
  | Species Mo :   atomic orbital   4 p accepted.
  | Species Mo :    ionic orbital   5 p accepted.
  | Species Mo :    hydro orbital   3 p accepted.
  | Species Mo :   atomic orbital   3 d accepted.
  | Species Mo :   atomic orbital   4 d accepted.
  | Species Mo :    hydro orbital   3 d accepted.
  | Species Mo :    hydro orbital   3 d accepted.
  | Species Mo :    hydro orbital   4 f accepted.
  | Species Mo :    hydro orbital   4 f accepted.
  | Species Mo :    hydro orbital   4 f accepted.
  | Species Mo :    hydro orbital   5 g accepted.
  | Species Mo :    hydro orbital   6 h accepted.
  | Species S :   atomic orbital   1 s accepted.
  | Species S :   atomic orbital   2 s accepted.
  | Species S :    ionic orbital   3 s accepted.
  | Species S :   atomic orbital   3 s accepted.
  | Species S :    hydro orbital   1 s accepted.
  | Species S :   atomic orbital   2 p accepted.
  | Species S :   atomic orbital   3 p accepted.
  | Species S :    hydro orbital   2 p accepted.
  | Species S :    hydro orbital   4 p accepted.
  | Species S :    ionic orbital   3 d accepted.
  | Species S :    hydro orbital   4 d accepted.
  | Species S :    hydro orbital   4 f accepted.
  | Species S :    hydro orbital   5 f accepted.
  | Species S :    hydro orbital   5 g accepted.
 
  Basis size parameters after reduction:
  | Total number of radial functions:       35
  | Total number of basis functions :      366
 
  Per-task memory consumption for arrays in subroutine allocate_ext:
  |          12.876952MB.
  Testing on-site integration grid accuracy.
  |  Species  Function  <phi|h_atom|phi> (log., in eV)  <phi|h_atom|phi> (rad., in eV)
           1        1             -20281.8599610543             -20281.8584300616
           1        2              -2810.6161812280              -2810.6161551921
           1        3               -476.6533163555               -476.6533136395
           1        4                -64.1796433667                -64.1796426456
           1        5                 -3.3691762756                 -3.3691802887
           1        6                  4.4704608512                  4.4699102345
           1        7                 47.6285199283                 47.6283663304
           1        8              -2511.8455406047              -2511.8455385741
           1        9               -379.2179896350               -379.2179882338
           1       10                -38.3173891619                -38.3173886619
           1       11                  0.2493245095                  0.2492931069
           1       12                 12.9899978429                 12.9896957264
           1       13               -220.9295301098               -220.9295297081
           1       14                 -3.6195697699                 -3.6195754704
           1       15                  7.1428000922                  7.1426882355
           1       16                 20.1860643586                 20.1854440119
           1       17                 39.6800378350                 39.6800378704
           1       18                 41.9987405107                 41.9987406673
           1       19                 51.4938078473                 51.4938137886
           1       20                 50.2449608881                 50.2449608586
           1       21                 84.8920029004                 84.8920028797
           2       22              -2413.1254568977              -2413.1254096663
           2       23               -211.7513411281               -211.7513404762
           2       24                -16.9725280787                -16.9725279206
           2       25                  7.6024436204                  7.6024549059
           2       26                 48.5754986812                 48.5751292874
           2       27               -156.5192206929               -156.5192205451
           2       28                 -6.9959757887                 -6.9959777655
           2       29                  6.8896462808                  6.8895564741
           2       30                 27.2255287135                 27.2252601701
           2       31                  6.0214250550                  6.0214220200
           2       32                 19.6206468977                 19.6206494558
           2       33                 24.7008710786                 24.7008710738
           2       34                 58.2239314521                 58.2239319465
           2       35                 47.5292252001                 47.5292260486

  Preparing densities etc. for the partition functions (integrals / Hartree potential).

  Preparations completed.
  max(cpu_time)          :      0.537 s.
  Wall clock time (cpu1) :      0.784 s.
------------------------------------------------------------

------------------------------------------------------------
          Begin self-consistency loop: Initialization.

          Date     :  20200316, Time     :  161332.162
------------------------------------------------------------

  Initializing index lists of integration centers etc. from given atomic structure:
  Mapping all atomic coordinates to central unit cell.

  Initializing the k-points
  Using symmetry for reducing the k-points
  | k-points reduced from:      245 to      123
  | Number of k-points                             :       123
  The eigenvectors in the calculations are COMPLEX.
  | K-points in task   0:         2
  | K-points in task   1:         3
  | K-points in task   2:         3
  | K-points in task   3:         3
  | K-points in task   4:         3
  | K-points in task   5:         3
  | K-points in task   6:         3
  | K-points in task   7:         3
  | K-points in task   8:         3
  | K-points in task   9:         3
  | K-points in task  10:         3
  | K-points in task  11:         3
  | K-points in task  12:         3
  | K-points in task  13:         3
  | K-points in task  14:         3
  | K-points in task  15:         3
  | K-points in task  16:         3
  | K-points in task  17:         3
  | K-points in task  18:         3
  | K-points in task  19:         3
  | K-points in task  20:         3
  | K-points in task  21:         3
  | K-points in task  22:         3
  | K-points in task  23:         3
  | K-points in task  24:         3
  | K-points in task  25:         3
  | K-points in task  26:         3
  | K-points in task  27:         3
  | K-points in task  28:         2
  | K-points in task  29:         2
  | K-points in task  30:         2
  | K-points in task  31:         2
  | K-points in task  32:         2
  | K-points in task  33:         2
  | K-points in task  34:         2
  | K-points in task  35:         2
  | K-points in task  36:         2
  | K-points in task  37:         2
  | K-points in task  38:         2
  | K-points in task  39:         2
  | K-points in task  40:         2
  | K-points in task  41:         2
  | K-points in task  42:         2
  | K-points in task  43:         2
  | K-points in task  44:         2
  | K-points in task  45:         2
  | K-points in task  46:         2
  | K-points in task  47:         2
  | Number of basis functions in the Hamiltonian integrals :      9346
  | Number of basis functions in a single unit cell        :       366
  | Number of centers in hartree potential         :      1276
  | Number of centers in hartree multipole         :       708
  | Number of centers in electron density summation:       566
  | Number of centers in basis integrals           :       602
  | Number of centers in integrals                 :       238
  | Number of centers in hamiltonian               :       566
  | Consuming        326 KiB for k_phase.
  | Number of super-cells (origin) [n_cells]                     :        1125
  | Number of super-cells (after PM_index) [n_cells]             :         170
  | Number of super-cells in hamiltonian [n_cells_in_hamiltonian]:         170
  | Size of matrix packed + index [n_hamiltonian_matrix_size] :     2030657
  | Estimated reciprocal-space cutoff momentum G_max:         2.41777999 bohr^-1 .
  | Reciprocal lattice points for long-range Hartree potential:     218
  Partitioning the integration grid into batches with parallel hashing+maxmin method.
  | Number of batches:     1909
  | Maximal batch size:     115
  | Minimal batch size:      50
  | Average batch size:      77.525
  | Standard deviation of batch sizes:      14.367

  Integration load balanced across    48 MPI tasks.
  Work distribution over tasks is as follows:
  Task     0 has       3075 integration points.
  Task     1 has       3142 integration points.
  Task     2 has       3073 integration points.
  Task     3 has       3101 integration points.
  Task     4 has       3126 integration points.
  Task     5 has       3103 integration points.
  Task     6 has       3064 integration points.
  Task     7 has       3046 integration points.
  Task     8 has       3070 integration points.
  Task     9 has       3078 integration points.
  Task    10 has       3070 integration points.
  Task    11 has       3114 integration points.
  Task    12 has       3076 integration points.
  Task    13 has       3093 integration points.
  Task    14 has       3079 integration points.
  Task    15 has       3068 integration points.
  Task    16 has       3081 integration points.
  Task    17 has       3108 integration points.
  Task    18 has       3103 integration points.
  Task    19 has       3079 integration points.
  Task    20 has       3073 integration points.
  Task    21 has       3095 integration points.
  Task    22 has       3106 integration points.
  Task    23 has       3070 integration points.
  Task    24 has       3049 integration points.
  Task    25 has       3078 integration points.
  Task    26 has       3074 integration points.
  Task    27 has       3073 integration points.
  Task    28 has       3068 integration points.
  Task    29 has       3073 integration points.
  Task    30 has       3077 integration points.
  Task    31 has       3064 integration points.
  Task    32 has       3099 integration points.
  Task    33 has       3079 integration points.
  Task    34 has       3076 integration points.
  Task    35 has       3045 integration points.
  Task    36 has       3075 integration points.
  Task    37 has       3097 integration points.
  Task    38 has       3130 integration points.
  Task    39 has       3103 integration points.
  Task    40 has       3043 integration points.
  Task    41 has       3083 integration points.
  Task    42 has       3100 integration points.
  Task    43 has       3100 integration points.
  Task    44 has       3096 integration points.
  Task    45 has       3071 integration points.
  Task    46 has       3076 integration points.
  Task    47 has       3074 integration points.
  Initializing partition tables, free-atom densities, potentials, etc. across the integration grid (initialize_grid_storage).
  | initialize_grid_storage: Actual outermost partition radius vs. multipole_radius_free
  | (-- VB: in principle, multipole_radius_free should be larger, hence this output)
  | Species        1: Confinement radius =              6.000000000000000 AA, multipole_radius_free =              6.016994434057369 AA.
  | Species        1: outer_partition_radius set to              6.016994434057369 AA .
  | Species        2: Confinement radius =              6.000000000000000 AA, multipole_radius_free =              6.012827091137924 AA.
  | Species        2: outer_partition_radius set to              6.012827091137924 AA .
  | The sparse table of interatomic distances needs       2662.04 kbyte instead of      2899.23 kbyte of memory.
  | Net number of integration points:   147996
  | of which are non-zero points    :   117516
  | Numerical average free-atom electrostatic potential    :    -14.80655792 eV
  Renormalizing the initial density to the exact electron count on the 3D integration grid.
  | Initial density: Formal number of electrons (from input files) :     148.0000000000
  | Integrated number of electrons on 3D grid     :     147.9998749112
  | Charge integration error                      :      -0.0001250888
  | Normalization factor for density and gradient :       1.0000008452
  Renormalizing the free-atom superposition density to the exact electron count on the 3D integration grid.
  | Formal number of electrons (from input files) :     148.0000000000
  | Integrated number of electrons on 3D grid     :     147.9998749112
  | Charge integration error                      :      -0.0001250888
  | Normalization factor for density and gradient :       1.0000008452
  Obtaining max. number of non-zero basis functions in each batch (get_n_compute_maxes).
  | Maximal number of non-zero basis functions:     1900 in task     0
  | Maximal number of non-zero basis functions:     1878 in task     1
  | Maximal number of non-zero basis functions:     1896 in task     2
  | Maximal number of non-zero basis functions:     1886 in task     3
  | Maximal number of non-zero basis functions:     1903 in task     4
  | Maximal number of non-zero basis functions:     1938 in task     5
  | Maximal number of non-zero basis functions:     2002 in task     6
  | Maximal number of non-zero basis functions:     1871 in task     7
  | Maximal number of non-zero basis functions:     1945 in task     8
  | Maximal number of non-zero basis functions:     1907 in task     9
  | Maximal number of non-zero basis functions:     1916 in task    10
  | Maximal number of non-zero basis functions:     1839 in task    11
  | Maximal number of non-zero basis functions:     1973 in task    12
  | Maximal number of non-zero basis functions:     1853 in task    13
  | Maximal number of non-zero basis functions:     1832 in task    14
  | Maximal number of non-zero basis functions:     1878 in task    15
  | Maximal number of non-zero basis functions:     1922 in task    16
  | Maximal number of non-zero basis functions:     1926 in task    17
  | Maximal number of non-zero basis functions:     1868 in task    18
  | Maximal number of non-zero basis functions:     1877 in task    19
  | Maximal number of non-zero basis functions:     1881 in task    20
  | Maximal number of non-zero basis functions:     1846 in task    21
  | Maximal number of non-zero basis functions:     2001 in task    22
  | Maximal number of non-zero basis functions:     1846 in task    23
  | Maximal number of non-zero basis functions:     1851 in task    24
  | Maximal number of non-zero basis functions:     1923 in task    25
  | Maximal number of non-zero basis functions:     1937 in task    26
  | Maximal number of non-zero basis functions:     1945 in task    27
  | Maximal number of non-zero basis functions:     1838 in task    28
  | Maximal number of non-zero basis functions:     2001 in task    29
  | Maximal number of non-zero basis functions:     1789 in task    30
  | Maximal number of non-zero basis functions:     1878 in task    31
  | Maximal number of non-zero basis functions:     1891 in task    32
  | Maximal number of non-zero basis functions:     1845 in task    33
  | Maximal number of non-zero basis functions:     1820 in task    34
  | Maximal number of non-zero basis functions:     1950 in task    35
  | Maximal number of non-zero basis functions:     1798 in task    36
  | Maximal number of non-zero basis functions:     1862 in task    37
  | Maximal number of non-zero basis functions:     1845 in task    38
  | Maximal number of non-zero basis functions:     1959 in task    39
  | Maximal number of non-zero basis functions:     1903 in task    40
  | Maximal number of non-zero basis functions:     1804 in task    41
  | Maximal number of non-zero basis functions:     1878 in task    42
  | Maximal number of non-zero basis functions:     1945 in task    43
  | Maximal number of non-zero basis functions:     1876 in task    44
  | Maximal number of non-zero basis functions:     1844 in task    45
  | Maximal number of non-zero basis functions:     1845 in task    46
  | Maximal number of non-zero basis functions:     1853 in task    47
  Allocating        1.083 MB for KS_eigenvector_complex
  Integrating Hamiltonian matrix: batch-based integration.
  Time summed over all CPUs for integration: real work       83.468 s, elapsed       86.311 s
  Integrating overlap matrix.
  Time summed over all CPUs for integration: real work       64.792 s, elapsed       67.382 s
  Decreasing sparse matrix size:
  | Tolerance:  0.1000E-12
  Hamiltonian matrix
  | Array has  1694486 nonzero elements out of  2030657 elements
  | Sparsity factor is 0.166
  Overlap matrix
  | Array has  1536050 nonzero elements out of  2030657 elements
  | Sparsity factor is 0.244
  New size of hamiltonian matrix:     1695791

  Updating Kohn-Sham eigenvalues and eigenvectors using ELSI and the (modified) LAPACK eigensolver.
  Singularity check in k-point 48, task 0 (analysis for other k-points/tasks may follow below):
  Overlap matrix is not singular
  | Lowest and highest eigenvalues :  0.4950E-04,  0.1089E+02
  Finished singularity check of overlap matrix
  | Time :     0.096 s
  Starting LAPACK eigensolver
  Finished Cholesky decomposition
  | Time :     0.082 s
  Finished transformation to standard eigenproblem
  | Time :     0.012 s
  Finished solving standard eigenproblem
  | Time :     0.034 s
  Finished back-transformation of eigenvectors
  | Time :     0.002 s

  Obtaining occupation numbers and chemical potential using ELSI.
  | Chemical potential (Fermi level):    -5.58861536 eV
  Writing Kohn-Sham eigenvalues.
  K-point:       1 at    0.000000    0.000000    0.000000 (in units of recip. lattice)

  State    Occupation    Eigenvalue [Ha]    Eigenvalue [eV]
      1       2.00000        -745.361753       -20282.32525
      2       2.00000        -745.361753       -20282.32525
      3       2.00000        -103.305865        -2811.09562
      4       2.00000        -103.305865        -2811.09562
      5       2.00000         -92.326236        -2512.32471
      6       2.00000         -92.326236        -2512.32471
      7       2.00000         -92.326236        -2512.32471
      8       2.00000         -92.326236        -2512.32471
      9       2.00000         -92.326221        -2512.32429
     10       2.00000         -92.326221        -2512.32429
     11       2.00000         -88.712147        -2413.98034
     12       2.00000         -88.712147        -2413.98034
     13       2.00000         -88.712147        -2413.98034
     14       2.00000         -88.712147        -2413.98034
     15       2.00000         -17.535931         -477.17697
     16       2.00000         -17.535931         -477.17697
     17       2.00000         -13.955357         -379.74458
     18       2.00000         -13.955357         -379.74458
     19       2.00000         -13.955357         -379.74458
     20       2.00000         -13.955357         -379.74458
     21       2.00000         -13.955221         -379.74088
     22       2.00000         -13.955221         -379.74088
     23       2.00000          -8.138323         -221.45503
     24       2.00000          -8.138323         -221.45503
     25       2.00000          -8.138323         -221.45503
     26       2.00000          -8.138323         -221.45503
     27       2.00000          -8.138250         -221.45306
     28       2.00000          -8.138250         -221.45306
     29       2.00000          -8.138250         -221.45306
     30       2.00000          -8.138250         -221.45306
     31       2.00000          -8.138178         -221.45110
     32       2.00000          -8.138178         -221.45110
     33       2.00000          -7.815998         -212.68412
     34       2.00000          -7.815997         -212.68411
     35       2.00000          -7.815997         -212.68411
     36       2.00000          -7.815997         -212.68411
     37       2.00000          -5.786204         -157.45061
     38       2.00000          -5.786204         -157.45061
     39       2.00000          -5.786204         -157.45061
     40       2.00000          -5.786204         -157.45061
     41       2.00000          -5.785781         -157.43912
     42       2.00000          -5.785781         -157.43912
     43       2.00000          -5.785781         -157.43911
     44       2.00000          -5.785781         -157.43911
     45       2.00000          -5.785781         -157.43911
     46       2.00000          -5.785781         -157.43911
     47       2.00000          -5.785781         -157.43911
     48       2.00000          -5.785781         -157.43911
     49       2.00000          -2.393569          -65.13232
     50       2.00000          -2.393569          -65.13232
     51       2.00000          -1.453476          -39.55109
     52       2.00000          -1.453476          -39.55109
     53       2.00000          -1.443593          -39.28217
     54       2.00000          -1.443593          -39.28217
     55       2.00000          -1.443593          -39.28217
     56       2.00000          -1.443593          -39.28217
     57       2.00000          -0.777006          -21.14341
     58       2.00000          -0.776437          -21.12794
     59       2.00000          -0.728180          -19.81478
     60       2.00000          -0.727139          -19.78646
     61       2.00000          -0.452983          -12.32630
     62       2.00000          -0.446986          -12.16312
     63       2.00000          -0.329058           -8.95412
     64       2.00000          -0.327258           -8.90515
     65       2.00000          -0.327258           -8.90514
     66       2.00000          -0.327228           -8.90434
     67       2.00000          -0.327228           -8.90433
     68       2.00000          -0.311366           -8.47271
     69       2.00000          -0.290752           -7.91177
     70       2.00000          -0.290751           -7.91173
     71       2.00000          -0.290659           -7.90924
     72       2.00000          -0.290658           -7.90921
     73       2.00000          -0.221231           -6.01999
     74       2.00000          -0.206918           -5.63052
     75       0.00000          -0.126131           -3.43219
     76       0.00000          -0.126129           -3.43214
     77       0.00000          -0.126119           -3.43186
     78       0.00000          -0.126117           -3.43182
     79       0.00000          -0.122001           -3.31980
     80       0.00000          -0.122000           -3.31978
     81       0.00000          -0.121664           -3.31064
     82       0.00000          -0.121663           -3.31062
     83       0.00000          -0.028424           -0.77345
     84       0.00000          -0.022915           -0.62355
     85       0.00000           0.018342            0.49911
     86       0.00000           0.025074            0.68229
     87       0.00000           0.076625            2.08506
     88       0.00000           0.079236            2.15613
     89       0.00000           0.146604            3.98931
     90       0.00000           0.146605            3.98933
     91       0.00000           0.147930            4.02537
     92       0.00000           0.147931            4.02540
     93       0.00000           0.178706            4.86284
     94       0.00000           0.220554            6.00157
     95       0.00000           0.220555            6.00162
     96       0.00000           0.224090            6.09779
     97       0.00000           0.224090            6.09781

  What follows are estimated values for band gap, HOMO, LUMO, etc.
  | They are estimated on a discrete k-point grid and not necessarily exact.
  | For converged numbers, create a DOS and/or band structure plot on a denser k-grid.

  Highest occupied state (VBM) at     -5.63052322 eV (relative to internal zero)
  | Occupation number:      2.00000000
  | K-point:       1 at    0.000000    0.000000    0.000000 (in units of recip. lattice)

  Lowest unoccupied state (CBM) at    -4.16222127 eV (relative to internal zero)
  | Occupation number:      0.00000000
  | K-point:      37 at    0.142857    0.714286    0.000000 (in units of recip. lattice)

  ESTIMATED overall HOMO-LUMO gap:      1.46830195 eV between HOMO at k-point 1 and LUMO at k-point 37
  | This appears to be an indirect band gap.
  | Smallest direct gap :      2.07488068 eV for k_point 4 at    0.142857    0.714286    0.000000 (in units of recip. lattice)
  The gap value is above 0.2 eV. Unless you are using a very sparse k-point grid,
  this system is most likely an insulator or a semiconductor.
  Calculating total energy contributions from superposition of free atom densities.

  Total energy components:
  | Sum of eigenvalues            :       -5856.48546398 Ha     -159363.07777913 eV
  | XC energy correction          :        -351.31705493 Ha       -9559.82346303 eV
  | XC potential correction       :         456.78867005 Ha       12429.85213596 eV
  | Free-atom electrostatic energy:       -4024.16503748 Ha     -109503.10212630 eV
  | Hartree energy correction     :           0.00000000 Ha           0.00000000 eV
  | Entropy correction            :          -0.00000000 Ha          -0.00000000 eV
  | ---------------------------
  | Total energy                  :       -9775.17888634 Ha     -265996.15123250 eV
  | Total energy, T -> 0          :       -9775.17888634 Ha     -265996.15123250 eV  <-- do not rely on this value for anything but (periodic) metals
  | Electronic free energy        :       -9775.17888634 Ha     -265996.15123250 eV

  Derived energy quantities:
  | Kinetic energy                :       10036.62929268 Ha      273110.57876700 eV
  | Electrostatic energy          :      -19460.49112409 Ha     -529546.90653647 eV
  | Energy correction for multipole
  | error in Hartree potential    :           0.00000000 Ha           0.00000000 eV
  | Sum of eigenvalues per atom                           :      -26560.51296319 eV
  | Total energy (T->0) per atom                          :      -44332.69187208 eV  <-- do not rely on this value for anything but (periodic) metals
  | Electronic free energy per atom                       :      -44332.69187208 eV
  Initialize hartree_potential_storage
  Max. number of atoms included in rho_multipole:            6

  End scf initialization - timings             :  max(cpu_time)    wall_clock(cpu1)
  | Time for scf. initialization               :        4.358 s           4.594 s
  | Boundary condition initialization          :        0.168 s           0.171 s
  | Integration                                :        3.292 s           3.328 s
  | Solution of K.-S. eqns.                    :        0.356 s           0.490 s
  | Grid partitioning                          :        0.154 s           0.158 s
  | Preloading free-atom quantities on grid    :        0.023 s           0.024 s
  | Free-atom superposition energy             :        0.027 s           0.026 s
  | Total energy evaluation                    :        0.000 s           0.001 s

  Partial memory accounting:
  | Current value for overall tracked memory usage:
  |   Minimum:       33.429 MB (on task  0)
  |   Maximum:       33.971 MB (on task  1)
  |   Average:       33.734 MB
  | Peak value for overall tracked memory usage:
  |   Minimum:       68.984 MB (on task 30 after allocating wave)
  |   Maximum:       76.252 MB (on task  6 after allocating wave)
  |   Average:       72.376 MB
  | Largest tracked array allocation so far:
  |   Minimum:       24.418 MB (hamiltonian_shell on task 30)
  |   Maximum:       30.579 MB (hamiltonian_shell on task  6)
  |   Average:       27.240 MB
  Note:  These values currently only include a subset of arrays which are explicitly tracked.
  The "true" memory usage will be greater.
------------------------------------------------------------

------------------------------------------------------------
          Begin self-consistency iteration #    1

  Date     :  20200316, Time     :  161336.759
------------------------------------------------------------
  Evaluating new KS density using the density matrix
  Evaluating density matrix
  Time summed over all CPUs for getting density from density matrix: real work      164.708 s, elapsed      169.503 s
  Integration grid: deviation in total charge (<rho> - N_e) =  -1.261924E-11
  Pulay mixing of updated and previous charge densities.
  Renormalizing the density to the exact electron count on the 3D integration grid.
  | Formal number of electrons (from input files) :     148.0000000000
  | Integrated number of electrons on 3D grid     :     147.9997691518
  | Charge integration error                      :      -0.0002308482
  | Normalization factor for density and gradient :       1.0000015598

  Evaluating partitioned Hartree potential by multipole expansion.
  | Original multipole sum: apparent total charge =   0.177842E-13
  | Sum of charges compensated after spline to logarithmic grids =   0.707108E-08
  | Analytical far-field extrapolation by fixed multipoles:
  | Hartree multipole sum: apparent total charge =   0.177442E-13
  Summing up the Hartree potential.
  Time summed over all CPUs for potential: real work       12.568 s, elapsed       12.874 s
  | RMS charge density error from multipole expansion :   0.354607E-03
  | Average real-space part of the electrostatic potential :     -0.00244971 eV

  Integrating Hamiltonian matrix: batch-based integration.
  Time summed over all CPUs for integration: real work       80.194 s, elapsed       82.894 s

  Updating Kohn-Sham eigenvalues and eigenvectors using ELSI and the (modified) LAPACK eigensolver.
  Starting LAPACK eigensolver
  Finished Cholesky decomposition
  | Time :     0.005 s
  Finished transformation to standard eigenproblem
  | Time :     0.011 s
  Finished solving standard eigenproblem
  | Time :     0.031 s
  Finished back-transformation of eigenvectors
  | Time :     0.003 s

  Obtaining occupation numbers and chemical potential using ELSI.
  | Chemical potential (Fermi level):    -5.68380595 eV
  Writing Kohn-Sham eigenvalues.
  K-point:       1 at    0.000000    0.000000    0.000000 (in units of recip. lattice)

  State    Occupation    Eigenvalue [Ha]    Eigenvalue [eV]
      1       2.00000        -745.380866       -20282.84535
      2       2.00000        -745.380866       -20282.84535
      3       2.00000        -103.324827        -2811.61160
      4       2.00000        -103.324827        -2811.61160
      5       2.00000         -92.345316        -2512.84391
      6       2.00000         -92.345316        -2512.84391
      7       2.00000         -92.345316        -2512.84391
      8       2.00000         -92.345316        -2512.84391
      9       2.00000         -92.345308        -2512.84369
     10       2.00000         -92.345308        -2512.84368
     11       2.00000         -88.704935        -2413.78410
     12       2.00000         -88.704935        -2413.78410
     13       2.00000         -88.704935        -2413.78410
     14       2.00000         -88.704935        -2413.78410
     15       2.00000         -17.552024         -477.61486
     16       2.00000         -17.552024         -477.61486
     17       2.00000         -13.971442         -380.18227
     18       2.00000         -13.971442         -380.18227
     19       2.00000         -13.971442         -380.18227
     20       2.00000         -13.971442         -380.18227
     21       2.00000         -13.971333         -380.17931
     22       2.00000         -13.971333         -380.17931
     23       2.00000          -8.154633         -221.89886
     24       2.00000          -8.154633         -221.89886
     25       2.00000          -8.154633         -221.89886
     26       2.00000          -8.154633         -221.89886
     27       2.00000          -8.154598         -221.89791
     28       2.00000          -8.154598         -221.89791
     29       2.00000          -8.154598         -221.89791
     30       2.00000          -8.154598         -221.89791
     31       2.00000          -8.154494         -221.89508
     32       2.00000          -8.154494         -221.89508
     33       2.00000          -7.810366         -212.53087
     34       2.00000          -7.810366         -212.53087
     35       2.00000          -7.810366         -212.53087
     36       2.00000          -7.810366         -212.53087
     37       2.00000          -5.780368         -157.29181
     38       2.00000          -5.780368         -157.29181
     39       2.00000          -5.780368         -157.29180
     40       2.00000          -5.780368         -157.29180
     41       2.00000          -5.780045         -157.28302
     42       2.00000          -5.780045         -157.28302
     43       2.00000          -5.780045         -157.28302
     44       2.00000          -5.780045         -157.28302
     45       2.00000          -5.780045         -157.28302
     46       2.00000          -5.780045         -157.28302
     47       2.00000          -5.780045         -157.28301
     48       2.00000          -5.780045         -157.28301
     49       2.00000          -2.404664          -65.43425
     50       2.00000          -2.404664          -65.43424
     51       2.00000          -1.463269          -39.81757
     52       2.00000          -1.463269          -39.81757
     53       2.00000          -1.453681          -39.55667
     54       2.00000          -1.453681          -39.55666
     55       2.00000          -1.453681          -39.55666
     56       2.00000          -1.453681          -39.55666
     57       2.00000          -0.774986          -21.08844
     58       2.00000          -0.774414          -21.07289
     59       2.00000          -0.725995          -19.75532
     60       2.00000          -0.724944          -19.72674
     61       2.00000          -0.452703          -12.31869
     62       2.00000          -0.446778          -12.15744
     63       2.00000          -0.328602           -8.94171
     64       2.00000          -0.328602           -8.94171
     65       2.00000          -0.328574           -8.94096
     66       2.00000          -0.328574           -8.94095
     67       2.00000          -0.327196           -8.90345
     68       2.00000          -0.309322           -8.41709
     69       2.00000          -0.291194           -7.92378
     70       2.00000          -0.291192           -7.92374
     71       2.00000          -0.291104           -7.92135
     72       2.00000          -0.291103           -7.92131
     73       2.00000          -0.224543           -6.11014
     74       2.00000          -0.210416           -5.72571
     75       0.00000          -0.128648           -3.50070
     76       0.00000          -0.128647           -3.50065
     77       0.00000          -0.128645           -3.50061
     78       0.00000          -0.128643           -3.50057
     79       0.00000          -0.123633           -3.36422
     80       0.00000          -0.123632           -3.36420
     81       0.00000          -0.123297           -3.35509
     82       0.00000          -0.123297           -3.35507
     83       0.00000          -0.028444           -0.77399
     84       0.00000          -0.022746           -0.61896
     85       0.00000           0.018377            0.50007
     86       0.00000           0.026056            0.70901
     87       0.00000           0.077915            2.12019
     88       0.00000           0.080479            2.18995
     89       0.00000           0.147384            4.01053
     90       0.00000           0.147385            4.01056
     91       0.00000           0.148704            4.04645
     92       0.00000           0.148705            4.04647
     93       0.00000           0.178159            4.84797
     94       0.00000           0.221336            6.02285
     95       0.00000           0.221337            6.02289
     96       0.00000           0.224820            6.11767
     97       0.00000           0.224821            6.11769

  What follows are estimated values for band gap, HOMO, LUMO, etc.
  | They are estimated on a discrete k-point grid and not necessarily exact.
  | For converged numbers, create a DOS and/or band structure plot on a denser k-grid.

  Highest occupied state (VBM) at     -5.72570653 eV (relative to internal zero)
  | Occupation number:      2.00000000
  | K-point:       1 at    0.000000    0.000000    0.000000 (in units of recip. lattice)

  Lowest unoccupied state (CBM) at    -4.23264230 eV (relative to internal zero)
  | Occupation number:      0.00000000
  | K-point:      37 at    0.142857    0.714286    0.000000 (in units of recip. lattice)

  ESTIMATED overall HOMO-LUMO gap:      1.49306423 eV between HOMO at k-point 1 and LUMO at k-point 37
  | This appears to be an indirect band gap.
  | Smallest direct gap :      2.11514110 eV for k_point 4 at    0.142857    0.714286    0.000000 (in units of recip. lattice)
  The gap value is above 0.2 eV. Unless you are using a very sparse k-point grid,
  this system is most likely an insulator or a semiconductor.

  Total energy components:
  | Sum of eigenvalues            :       -5857.35545333 Ha     -159386.75139375 eV
  | XC energy correction          :        -351.29538918 Ha       -9559.23390809 eV
  | XC potential correction       :         456.76008615 Ha       12429.07432860 eV
  | Free-atom electrostatic energy:       -4024.16503748 Ha     -109503.10212630 eV
  | Hartree energy correction     :           0.90167265 Ha          24.53576129 eV
  | Entropy correction            :          -0.00000000 Ha          -0.00000000 eV
  | ---------------------------
  | Total energy                  :       -9775.15412118 Ha     -265995.47733825 eV
  | Total energy, T -> 0          :       -9775.15412118 Ha     -265995.47733825 eV  <-- do not rely on this value for anything but (periodic) metals
  | Electronic free energy        :       -9775.15412118 Ha     -265995.47733825 eV

  Derived energy quantities:
  | Kinetic energy                :       10036.40946809 Ha      273104.59703567 eV
  | Electrostatic energy          :      -19460.26820009 Ha     -529540.84046582 eV
  | Energy correction for multipole
  | error in Hartree potential    :          -0.00011580 Ha          -0.00315095 eV
  | Sum of eigenvalues per atom                           :      -26564.45856562 eV
  | Total energy (T->0) per atom                          :      -44332.57955637 eV  <-- do not rely on this value for anything but (periodic) metals
  | Electronic free energy per atom                       :      -44332.57955637 eV

  Self-consistency convergence accuracy:
  | Change of charge density      :  0.4001E+00
  | Change of sum of eigenvalues  : -0.2367E+02 eV
  | Change of total energy        :  0.6739E+00 eV

  End self-consistency iteration #     1       :  max(cpu_time)    wall_clock(cpu1)
  | Time for this iteration                    :        6.093 s           6.093 s
  | Charge density update                      :        3.617 s           3.617 s
  | Density mixing & preconditioning           :        0.171 s           0.171 s
  | Hartree multipole update                   :        0.003 s           0.003 s
[...]
  | RMS charge density error from multipole expansion :   0.644496E-02
  | Average real-space part of the electrostatic potential :     -0.00700509 eV

  Integrating Hamiltonian matrix: batch-based integration.
  Time summed over all CPUs for integration: real work       80.395 s, elapsed       84.290 s

  Updating Kohn-Sham eigenvalues and eigenvectors using ELSI and the (modified) LAPACK eigensolver.
  Starting LAPACK eigensolver
  Finished Cholesky decomposition
  | Time :     0.006 s
  Finished transformation to standard eigenproblem
  | Time :     0.011 s
  Finished solving standard eigenproblem
  | Time :     0.031 s
  Finished back-transformation of eigenvectors
  | Time :     0.002 s

  Obtaining occupation numbers and chemical potential using ELSI.
  | Chemical potential (Fermi level):    -6.20924243 eV
  What follows are estimated values for band gap, HOMO, LUMO, etc.
  | They are estimated on a discrete k-point grid and not necessarily exact.
  | For converged numbers, create a DOS and/or band structure plot on a denser k-grid.

  Highest occupied state (VBM) at     -6.25115209 eV (relative to internal zero)
  | Occupation number:      2.00000000
  | K-point:       1 at    0.000000    0.000000    0.000000 (in units of recip. lattice)

  Lowest unoccupied state (CBM) at    -4.59244034 eV (relative to internal zero)
  | Occupation number:      0.00000000
  | K-point:      37 at    0.142857    0.714286    0.000000 (in units of recip. lattice)

  ESTIMATED overall HOMO-LUMO gap:      1.65871175 eV between HOMO at k-point 1 and LUMO at k-point 37
  | This appears to be an indirect band gap.
  | Smallest direct gap :      2.10844066 eV for k_point 79 at    0.142857    0.714286    0.000000 (in units of recip. lattice)
  The gap value is above 0.2 eV. Unless you are using a very sparse k-point grid,
  this system is most likely an insulator or a semiconductor.

  Total energy components:
  | Sum of eigenvalues            :       -5861.96291126 Ha     -159512.12670315 eV
  | XC energy correction          :        -351.16470104 Ha       -9555.67770291 eV
  | XC potential correction       :         456.58327694 Ha       12424.26310502 eV
  | Free-atom electrostatic energy:       -4024.16503748 Ha     -109503.10212630 eV
  | Hartree energy correction     :           5.64190311 Ha         153.52399485 eV
  | Entropy correction            :          -0.00000000 Ha          -0.00000000 eV
  | ---------------------------
  | Total energy                  :       -9775.06746974 Ha     -265993.11943248 eV
  | Total energy, T -> 0          :       -9775.06746974 Ha     -265993.11943248 eV  <-- do not rely on this value for anything but (periodic) metals
  | Electronic free energy        :       -9775.06746974 Ha     -265993.11943248 eV

  Derived energy quantities:
  | Kinetic energy                :       10036.32143159 Ha      273102.20144057 eV
  | Electrostatic energy          :      -19460.22420028 Ha     -529539.64317014 eV
  | Energy correction for multipole
  | error in Hartree potential    :          -0.00247537 Ha          -0.06735835 eV
  | Sum of eigenvalues per atom                           :      -26585.35445052 eV
  | Total energy (T->0) per atom                          :      -44332.18657208 eV  <-- do not rely on this value for anything but (periodic) metals
  | Electronic free energy per atom                       :      -44332.18657208 eV

  Self-consistency convergence accuracy:
  | Change of charge density      :  0.7329E-06
  | Change of sum of eigenvalues  : -0.4067E-03 eV
  | Change of total energy        :  0.8959E-08 eV

  Preliminary charge convergence reached. Turning off preconditioner.

  Writing Kohn-Sham eigenvalues.
  K-point:       1 at    0.000000    0.000000    0.000000 (in units of recip. lattice)

  State    Occupation    Eigenvalue [Ha]    Eigenvalue [eV]
      1       2.00000        -745.459591       -20284.98757
      2       2.00000        -745.459591       -20284.98757
      3       2.00000        -103.416346        -2814.10196
      4       2.00000        -103.416346        -2814.10196
      5       2.00000         -92.435821        -2515.30667
      6       2.00000         -92.435821        -2515.30667
      7       2.00000         -92.435690        -2515.30310
      8       2.00000         -92.435690        -2515.30310
      9       2.00000         -92.435690        -2515.30309
     10       2.00000         -92.435690        -2515.30309
     11       2.00000         -88.677912        -2413.04875
     12       2.00000         -88.677912        -2413.04875
     13       2.00000         -88.677912        -2413.04875
     14       2.00000         -88.677912        -2413.04875
     15       2.00000         -17.640564         -480.02416
     16       2.00000         -17.640564         -480.02416
     17       2.00000         -14.060376         -382.60230
     18       2.00000         -14.060376         -382.60230
     19       2.00000         -14.059630         -382.58199
     20       2.00000         -14.059630         -382.58199
     21       2.00000         -14.059629         -382.58198
     22       2.00000         -14.059629         -382.58198
     23       2.00000          -8.244368         -224.34067
     24       2.00000          -8.244368         -224.34067
     25       2.00000          -8.244368         -224.34067
     26       2.00000          -8.244368         -224.34067
     27       2.00000          -8.243922         -224.32854
     28       2.00000          -8.243922         -224.32854
     29       2.00000          -8.243559         -224.31865
     30       2.00000          -8.243559         -224.31865
     31       2.00000          -8.243559         -224.31865
     32       2.00000          -8.243559         -224.31865
     33       2.00000          -7.783270         -211.79356
     34       2.00000          -7.783270         -211.79356
     35       2.00000          -7.783270         -211.79356
     36       2.00000          -7.783270         -211.79356
     37       2.00000          -5.753636         -156.56440
     38       2.00000          -5.753636         -156.56439
     39       2.00000          -5.753636         -156.56439
     40       2.00000          -5.753635         -156.56439
     41       2.00000          -5.753635         -156.56439
     42       2.00000          -5.753635         -156.56439
     43       2.00000          -5.753635         -156.56438
     44       2.00000          -5.753635         -156.56438
     45       2.00000          -5.751633         -156.50991
     46       2.00000          -5.751633         -156.50990
     47       2.00000          -5.751633         -156.50989
     48       2.00000          -5.751633         -156.50989
     49       2.00000          -2.474917          -67.34592
     50       2.00000          -2.474917          -67.34592
     51       2.00000          -1.523985          -41.46975
     52       2.00000          -1.523985          -41.46975
     53       2.00000          -1.516585          -41.26839
     54       2.00000          -1.516585          -41.26839
     55       2.00000          -1.516585          -41.26837
     56       2.00000          -1.516585          -41.26837
     57       2.00000          -0.753784          -20.51150
     58       2.00000          -0.753095          -20.49276
     59       2.00000          -0.706614          -19.22795
     60       2.00000          -0.705357          -19.19375
     61       2.00000          -0.444778          -12.10302
     62       2.00000          -0.438854          -11.94182
     63       2.00000          -0.332506           -9.04795
     64       2.00000          -0.332505           -9.04792
     65       2.00000          -0.332487           -9.04744
     66       2.00000          -0.332486           -9.04741
     67       2.00000          -0.311695           -8.48164
     68       2.00000          -0.292350           -7.95524
     69       2.00000          -0.292348           -7.95520
     70       2.00000          -0.292278           -7.95330
     71       2.00000          -0.292277           -7.95326
     72       2.00000          -0.291044           -7.91972
     73       2.00000          -0.243650           -6.63006
     74       2.00000          -0.229726           -6.25115
     75       0.00000          -0.136623           -3.71770
     76       0.00000          -0.136622           -3.71766
     77       0.00000          -0.136562           -3.71603
     78       0.00000          -0.136560           -3.71599
     79       0.00000          -0.127731           -3.47574
     80       0.00000          -0.127730           -3.47572
     81       0.00000          -0.127374           -3.46603
     82       0.00000          -0.127373           -3.46601
     83       0.00000          -0.022156           -0.60290
     84       0.00000          -0.009273           -0.25234
     85       0.00000           0.020440            0.55619
     86       0.00000           0.027366            0.74468
     87       0.00000           0.092216            2.50932
     88       0.00000           0.094149            2.56193
     89       0.00000           0.156542            4.25972
     90       0.00000           0.156545            4.25981
     91       0.00000           0.157932            4.29756
     92       0.00000           0.157935            4.29763
     93       0.00000           0.178938            4.86916
     94       0.00000           0.229587            6.24738
     95       0.00000           0.229590            6.24746
     96       0.00000           0.232872            6.33678
     97       0.00000           0.232875            6.33684

  What follows are estimated values for band gap, HOMO, LUMO, etc.
  | They are estimated on a discrete k-point grid and not necessarily exact.
  | For converged numbers, create a DOS and/or band structure plot on a denser k-grid.

  Highest occupied state (VBM) at     -6.25115209 eV (relative to internal zero)
  | Occupation number:      2.00000000
  | K-point:       1 at    0.000000    0.000000    0.000000 (in units of recip. lattice)

  Lowest unoccupied state (CBM) at    -4.59244034 eV (relative to internal zero)
  | Occupation number:      0.00000000
  | K-point:      37 at    0.142857    0.714286    0.000000 (in units of recip. lattice)

  ESTIMATED overall HOMO-LUMO gap:      1.65871175 eV between HOMO at k-point 1 and LUMO at k-point 37
  | This appears to be an indirect band gap.
  | Smallest direct gap :      2.10844066 eV for k_point 79 at    0.142857    0.714286    0.000000 (in units of recip. lattice)
  The gap value is above 0.2 eV. Unless you are using a very sparse k-point grid,
  this system is most likely an insulator or a semiconductor.

  Self-consistency cycle converged.

  End self-consistency iteration #    20       :  max(cpu_time)    wall_clock(cpu1)
  | Time for this iteration                    :        6.143 s           6.144 s
  | Charge density update                      :        3.602 s           3.603 s
  | Density mixing                             :        0.162 s           0.162 s
  | Hartree multipole update                   :        0.003 s           0.002 s
  | Hartree multipole summation                :        0.329 s           0.329 s
  | Integration                                :        1.805 s           1.805 s
  | Solution of K.-S. eqns.                    :        0.241 s           0.242 s
  | Total energy evaluation                    :        0.000 s           0.000 s

  Partial memory accounting:
  | Current value for overall tracked memory usage:
  |   Minimum:       33.430 MB (on task  0)
  |   Maximum:       33.971 MB (on task  1)
  |   Average:       33.734 MB
  | Peak value for overall tracked memory usage:
  |   Minimum:       68.984 MB (on task 30 after allocating wave)
  |   Maximum:       76.252 MB (on task  6 after allocating wave)
  |   Average:       72.376 MB
  | Largest tracked array allocation so far:
  |   Minimum:       24.418 MB (hamiltonian_shell on task 30)
  |   Maximum:       30.579 MB (hamiltonian_shell on task  6)
  |   Average:       27.240 MB
  Note:  These values currently only include a subset of arrays which are explicitly tracked.
  The "true" memory usage will be greater.
------------------------------------------------------------

  Energy and forces in a compact form:
  | Total energy uncorrected      :         -0.265993119432483E+06 eV
  | Total energy corrected        :         -0.265993119432483E+06 eV  <-- do not rely on this value for anything but (periodic) metals
  | Electronic free energy        :         -0.265993119432483E+06 eV

  ------------------------------------ 
  Start decomposition of the XC Energy 
  ------------------------------------ 
  X and C from original XC functional choice 
  Hartree-Fock Energy :          0.000000000 Ha              0.000000000 eV
  X Energy            :       -344.207898707 Ha          -9366.373479655 eV
  C Energy            :         -6.956802336 Ha           -189.304223257 eV
  Total XC Energy     :       -351.164701043 Ha          -9555.677702911 eV
  ------------------------------------ 
  LDA X and C from self-consistent density 
  X Energy LDA        :       -325.107490635 Ha          -8846.624931506 eV
  C Energy LDA        :        -12.816971368 Ha           -348.767536031 eV
  ------------------------------------ 
  End decomposition of the XC Energy 
  ------------------------------------ 

------------------------------------------------------------

------------------------------------------------------------------------------
  Final output of selected total energy values:

  The following output summarizes some interesting total energy values
  at the end of a run (AFTER all relaxation, molecular dynamics, etc.).

  | Total energy of the DFT / Hartree-Fock s.c.f. calculation      :        -265993.119432483 eV
  | Final zero-broadening corrected energy (caution - metals only) :        -265993.119432483 eV
  | For reference only, the value of 1 Hartree used in FHI-aims is :             27.211384500 eV
  | For reference only, the overall average (free atom contribution
  | + realspace contribution) of the electrostatic potential after
  | s.c.f. convergence is                                          :            -14.813563010 eV

  Before relying on these values, please be sure to understand exactly which
  total energy value is referred to by a given number. Different objects may
  all carry the same name 'total energy'. Definitions:

  Total energy of the DFT / Hartree-Fock s.c.f. calculation:
  | Note that this energy does not include ANY quantities calculated after the
  | s.c.f. cycle, in particular not ANY RPA, MP2, etc. many-body perturbation terms.

  Final zero-broadening corrected energy:
  | For metallic systems only, a broadening of the occupation numbers at the Fermi
  | level can be extrapolated back to zero broadening by an electron-gas inspired
  | formula. For all systems that are not real metals, this value can be
  | meaningless and should be avoided.

------------------------------------------------------------------------------
  Methods described in the following list of references were used in this FHI-aims run.
  If you publish the results, please make sure to cite these reference if they apply.
  FHI-aims is an academic code, and for our developers (often, Ph.D. students
  and postdocs), scientific credit in the community is essential.
  Thank you for helping us!

  For any use of FHI-aims, please cite:

    Volker Blum, Ralf Gehrke, Felix Hanke, Paula Havu, Ville Havu,
    Xinguo Ren, Karsten Reuter, and Matthias Scheffler
    'Ab initio molecular simulations with numeric atom-centered orbitals'
    Computer Physics Communications 180, 2175-2196 (2009)
    http://dx.doi.org/10.1016/j.cpc.2009.06.022


  The provided symmetry information was generated with SPGlib:

    Atsushi Togo, Yusuke Seto, Dimitar Pashov
    SPGlib 1.7.3 obtained from http://spglib.sourceforge.net
    Copyright (C) 2008 Atsushi Togo


  The ELSI infrastructure was used in your run to solve the Kohn-Sham electronic structure.
  Please check out http://elsi-interchange.org to learn more.
  If scalability is important for your project, please acknowledge ELSI by citing:

    V. W-z. Yu, F. Corsetti, A. Garcia, W. P. Huhn, M. Jacquelin, W. Jia,
    B. Lange, L. Lin, J. Lu, W. Mi, A. Seifitokaldani, A. Vazquez-Mayagoitia,
    C. Yang, H. Yang, and V. Blum
    'ELSI: A unified software interface for Kohn-Sham electronic structure solvers'
    Computer Physics Communications 222, 267-285 (2018).
    http://dx.doi.org/10.1016/j.cpc.2017.09.007


  For the real-space grid partitioning and parallelization used in this calculation, please cite:

    Ville Havu, Volker Blum, Paula Havu, and Matthias Scheffler,
    'Efficient O(N) integration for all-electron electronic structure calculation'
    'using numerically tabulated basis functions'
    Journal of Computational Physics 228, 8367-8379 (2009).
    http://dx.doi.org/10.1016/j.jcp.2009.08.008

  Of course, there are many other important community references, e.g., those cited in the
  above references. Our list is limited to references that describe implementations in the
  FHI-aims code. The reason is purely practical (length of this list) - please credit others as well.

------------------------------------------------------------
          Leaving FHI-aims.
          Date     :  20200316, Time     :  161539.362

          Computational steps:
          | Number of self-consistency cycles          :           20
          | Number of SCF (re)initializations          :            1

          Detailed time accounting                     :  max(cpu_time)    wall_clock(cpu1)
          | Total time                                 :      127.904 s         129.131 s
          | Preparation time                           :        0.537 s           0.784 s
          | Boundary condition initalization           :        0.168 s           0.171 s
          | Grid partitioning                          :        0.154 s           0.158 s
          | Preloading free-atom quantities on grid    :        0.023 s           0.024 s
          | Free-atom superposition energy             :        0.027 s           0.026 s
          | Total time for integrations                :       38.947 s          38.981 s
          | Total time for solution of K.-S. equations :        5.193 s           5.334 s
          | Total time for density update              :       72.256 s          72.247 s
          | Total time for mixing & preconditioning    :        3.181 s           3.183 s
          | Total time for Hartree multipole update    :        0.054 s           0.054 s
          | Total time for Hartree multipole sum       :        6.565 s           6.566 s
          | Total time for total energy evaluation     :        0.009 s           0.006 s
          | Total time for scaled ZORA corrections     :        0.000 s           0.000 s

          Partial memory accounting:
          | Residual value for overall tracked memory usage across tasks:     0.000000 MB (should be 0.000000 MB)
          | Peak values for overall tracked memory usage:
          |   Minimum:       68.984 MB (on task 30 after allocating wave)
          |   Maximum:       76.252 MB (on task  6 after allocating wave)
          |   Average:       72.376 MB
          | Largest tracked array allocation:
          |   Minimum:       24.418 MB (hamiltonian_shell on task 30)
          |   Maximum:       30.579 MB (hamiltonian_shell on task  6)
          |   Average:       27.240 MB
          Note:  These values currently only include a subset of arrays which are explicitly tracked.
          The "true" memory usage will be greater.

          Have a nice day.
------------------------------------------------------------
