------------------------------------------------------------
          Invoking FHI-aims ...

          When using FHI-aims, please cite the following reference:

          Volker Blum, Ralf Gehrke, Felix Hanke, Paula Havu,
          Ville Havu, Xinguo Ren, Karsten Reuter, and Matthias Scheffler,
          'Ab Initio Molecular Simulations with Numeric Atom-Centered Orbitals',
          Computer Physics Communications 180, 2175-2196 (2009)

          For any questions about FHI-aims, please visit the aimsclub website
          with its forums and wiki. Contributions to both the forums and the
          wiki are warmly encouraged - they are for you, and everyone is welcome there.

------------------------------------------------------------



  Date     :  20200420, Time     :  204645.453
  Time zero on CPU 1             :   0.891270000000000E-01  s.
  Internal wall clock time zero  :           356647605.453  s.

  FHI-aims created a unique identifier for this run for later identification
  aims_uuid : 6644893D-55C0-46F7-A66B-71300BD423DC

  Build configuration of the current instance of FHI-aims
  -------------------------------------------------------
  FHI-aims version      : 200112
  Commit number         : 23daeca3f
  CMake host system     : Linux-3.10.0-693.21.1.el7.x86_64
  CMake version         : 3.13.3
  Fortran compiler      : /sw/installed/impi/2018.4.274-iccifort-2019.1.144-GCC-8.2.0-2.31.1/bin64/mpiifort (Intel) version 19.0.0.20181018
  Fortran compiler flags: -O3 -ip -fp-model precise
  C compiler            : /sw/installed/impi/2018.4.274-iccifort-2019.1.144-GCC-8.2.0-2.31.1/bin64/mpiicc (Intel) version 19.0.0.20181018
  C compiler flags      : -O3 -ip -fp-model precise
  Architecture          :
  Using MPI
  Using Scalapack
  Using C files
  Using LibXC
  Using SPGlib
  Using i-PI
  Using RLSY
  Linking against: /sw/installed/imkl/2019.1.144-iimpi-2019a/mkl/lib/intel64/libmkl_intel_lp64.so
                   /sw/installed/imkl/2019.1.144-iimpi-2019a/mkl/lib/intel64/libmkl_sequential.so
                   /sw/installed/imkl/2019.1.144-iimpi-2019a/mkl/lib/intel64/libmkl_core.so
                   /sw/installed/imkl/2019.1.144-iimpi-2019a/mkl/lib/intel64/libmkl_blacs_intelmpi_lp64.so
                   /sw/installed/imkl/2019.1.144-iimpi-2019a/mkl/lib/intel64/libmkl_scalapack_lp64.so

  Using       24 parallel tasks.
  Task        0 on host taurusi6565.taurus.hrsk.tu-dresden.de reporting.
  Task        1 on host taurusi6565.taurus.hrsk.tu-dresden.de reporting.
  Task        2 on host taurusi6565.taurus.hrsk.tu-dresden.de reporting.
  Task        3 on host taurusi6565.taurus.hrsk.tu-dresden.de reporting.
  Task        4 on host taurusi6565.taurus.hrsk.tu-dresden.de reporting.
  Task        5 on host taurusi6565.taurus.hrsk.tu-dresden.de reporting.
  Task        6 on host taurusi6565.taurus.hrsk.tu-dresden.de reporting.
  Task        7 on host taurusi6565.taurus.hrsk.tu-dresden.de reporting.
  Task        8 on host taurusi6565.taurus.hrsk.tu-dresden.de reporting.
  Task        9 on host taurusi6565.taurus.hrsk.tu-dresden.de reporting.
  Task       10 on host taurusi6565.taurus.hrsk.tu-dresden.de reporting.
  Task       11 on host taurusi6565.taurus.hrsk.tu-dresden.de reporting.
  Task       12 on host taurusi6565.taurus.hrsk.tu-dresden.de reporting.
  Task       13 on host taurusi6565.taurus.hrsk.tu-dresden.de reporting.
  Task       14 on host taurusi6565.taurus.hrsk.tu-dresden.de reporting.
  Task       15 on host taurusi6565.taurus.hrsk.tu-dresden.de reporting.
  Task       16 on host taurusi6565.taurus.hrsk.tu-dresden.de reporting.
  Task       17 on host taurusi6565.taurus.hrsk.tu-dresden.de reporting.
  Task       18 on host taurusi6565.taurus.hrsk.tu-dresden.de reporting.
  Task       19 on host taurusi6565.taurus.hrsk.tu-dresden.de reporting.
  Task       20 on host taurusi6565.taurus.hrsk.tu-dresden.de reporting.
  Task       21 on host taurusi6565.taurus.hrsk.tu-dresden.de reporting.
  Task       22 on host taurusi6565.taurus.hrsk.tu-dresden.de reporting.
  Task       23 on host taurusi6565.taurus.hrsk.tu-dresden.de reporting.

  Performing system and environment tests:
  | Environment variable OMP_NUM_THREADS correctly set to 1.
  | Maximum stacksize for task 0: unlimited
  | Maximum stacksize for task 1: unlimited
  | Maximum stacksize for task 2: unlimited
  | Maximum stacksize for task 3: unlimited
  | Maximum stacksize for task 4: unlimited
  | Maximum stacksize for task 5: unlimited
  | Maximum stacksize for task 6: unlimited
  | Maximum stacksize for task 7: unlimited
  | Maximum stacksize for task 8: unlimited
  | Maximum stacksize for task 9: unlimited
  | Maximum stacksize for task 10: unlimited
  | Maximum stacksize for task 11: unlimited
  | Maximum stacksize for task 12: unlimited
  | Maximum stacksize for task 13: unlimited
  | Maximum stacksize for task 14: unlimited
  | Maximum stacksize for task 15: unlimited
  | Maximum stacksize for task 16: unlimited
  | Maximum stacksize for task 17: unlimited
  | Maximum stacksize for task 18: unlimited
  | Maximum stacksize for task 19: unlimited
  | Maximum stacksize for task 20: unlimited
  | Maximum stacksize for task 21: unlimited
  | Maximum stacksize for task 22: unlimited
  | Maximum stacksize for task 23: unlimited
  | Current stacksize for task 0: unlimited
  | Current stacksize for task 1: unlimited
  | Current stacksize for task 2: unlimited
  | Current stacksize for task 3: unlimited
  | Current stacksize for task 4: unlimited
  | Current stacksize for task 5: unlimited
  | Current stacksize for task 6: unlimited
  | Current stacksize for task 7: unlimited
  | Current stacksize for task 8: unlimited
  | Current stacksize for task 9: unlimited
  | Current stacksize for task 10: unlimited
  | Current stacksize for task 11: unlimited
  | Current stacksize for task 12: unlimited
  | Current stacksize for task 13: unlimited
  | Current stacksize for task 14: unlimited
  | Current stacksize for task 15: unlimited
  | Current stacksize for task 16: unlimited
  | Current stacksize for task 17: unlimited
  | Current stacksize for task 18: unlimited
  | Current stacksize for task 19: unlimited
  | Current stacksize for task 20: unlimited
  | Current stacksize for task 21: unlimited
  | Current stacksize for task 22: unlimited
  | Current stacksize for task 23: unlimited
  | Checking for scalapack...
  | Testing pdtran()...
  | All pdtran() tests passed.

  Obtaining array dimensions for all initial allocations:
  
  -----------------------------------------------------------------------
  Parsing control.in (first pass over file, find array dimensions only).
  The contents of control.in will be repeated verbatim below
  unless switched off by setting 'verbatim_writeout .false.' .
  in the first line of control.in .
  -----------------------------------------------------------------------
  
  #===============================================================================
  # FHI-aims file: ./control.in
  # Created using the Atomic Simulation Environment (ASE)
  # Thu Apr  2 11:27:09 2020
  #===============================================================================
  xc                                 pbe
  # include_spin_orbit
  # vdw_correction_hirshfeld
  many_body_dispersion
  spin                               none
  k_grid 	 	 15 15 12
  relativistic                       atomic_zora scalar
  energy_tolerance 1e-2
  harmonic_length_scale  0.015
  ### SCF settings
  adjust_scf 	 always 	 3
  # frozen_core_scf 	 .true.
  # charge_mix_param  0.05
  # occupation_type 	 gaussian 	 0.01
  # sc_accuracy_eev   1E-3 	 	 # sum of eigenvalues convergence
  # sc_accuracy_etot  1E-6 	 	 # total energy convergence
  # sc_accuracy_rho   1E-3 	 	 # electron density convergence
  # elsi_restart 	 read_and_write 	 1000
  ### geometry optimisation section
  relax_geometry 	 bfgs 	 1E-2
  relax_unit_cell 	 full
  #===============================================================================
  
  ################################################################################
  #
  #  FHI-aims code project
  # Volker Blum, Fritz Haber Institute Berlin, 2009
  #
  #  Suggested "tight" defaults for Pd atom (to be pasted into control.in file)
  #
  ################################################################################
    species        Pd
  #     global species definitions
      nucleus             46
      mass                106.42
  #
      l_hartree           6
  #
      cut_pot             4.0  2.0  1.0
      basis_dep_cutoff    1e-4
  #
      radial_base         62 7.0
      radial_multiplier   2
      angular_grids specified
        division   0.3627   50
        division   0.7349  110
        division   1.0624  194
        division   1.2496  302
        division   1.6740  434
  #      division   2.0126  590
  #      division   2.0830  770
  #      division   2.7936 1202
  #       outer_grid  974
        outer_grid  434
  ################################################################################
  #
  #  Definition of "minimal" basis
  #
  ################################################################################
  #     valence basis states
      valence      5  s   1.
      valence      4  p   6.
      valence      4  d   9.
  #     ion occupancy
      ion_occ     5  s   0.
      ion_occ     4  p   6.
      ion_occ     4  d   8.
  ################################################################################
  #
  #  Suggested additional basis functions. For production calculations,
  #  uncomment them one after another (the most important basis functions are
  #  listed first).
  #
  #  Constructed for dimers: 2.0 A, 2.275 A, 2.75 A, 3.75 A
  #
  ################################################################################
  #  "First tier" - max. impr. -120.76  meV, min. impr. -5.71 meV
       ionic 5 p auto
       hydro 4 f 8
       hydro 5 g 10
       hydro 3 s 2.6
       hydro 3 d 2.5
  #  "Second tier" - max. impr. -5.00  meV, min. impr. -0.62 meV
  #     hydro 5 f 17.2
  #     hydro 6 h 14
  #     hydro 4 d 4
  #     hydro 5 f 7.6
  #     hydro 3 p 3.3
  #     hydro 4 s 9.4
  #  "Third tier" - max. impr. -0.54  meV, min. impr. -0.14 meV
  #     hydro 4 f 20
  #     hydro 5 g 12.8
  #     hydro 5 d 9.8
  #     hydro 6 h 15.2
  #     hydro 5 s 10
  #     hydro 6 p 9.8
  #  "Fourth tier" - max. impr. -0.15  meV, min. impr. -0.05 meV
  #     hydro 5 f 9.2
  #     hydro 2 s 5.6
  #     hydro 5 f 43.2
  #     hydro 5 d 13.2
  #     hydro 5 g 14
  #     hydro 4 p 4.7
  ################################################################################
  #
  #  FHI-aims code project
  # Volker Blum, Fritz Haber Institute Berlin, 2009
  #
  #  Suggested "tight" defaults for Se atom (to be pasted into control.in file)
  #
  ################################################################################
    species        Se
  #     global species definitions
      nucleus             34
      mass                78.96
  #
      l_hartree           6
  #
      cut_pot             4.0          2.0  1.0
      basis_dep_cutoff    1e-4
  #
      radial_base         55 7.0
      radial_multiplier   2
      angular_grids       specified
        division   0.0830  110
        division   0.1357  194
        division   0.7377  302
        division   0.8610  434
  #      division   0.9640  590
  #      division   1.0773  770
  #      division   2.5539  974
  #      outer_grid  974
        outer_grid  434
  ################################################################################
  #
  #  Definition of "minimal" basis
  #
  ################################################################################
  #     valence basis states
      valence      4  s   2.
      valence      4  p   4.
      valence      3  d  10.
  #     ion occupancy
      ion_occ      4  s   1.
      ion_occ      4  p   3.
      ion_occ      3  d  10.
  ################################################################################
  #
  #  Suggested additional basis functions. For production calculations,
  #  uncomment them one after another (the most important basis functions are
  #  listed first).
  #
  #  Constructed for dimers: 1.85 A, 2.15 A, 2.50 A, 3.00 A, 4.00 A
  #
  ################################################################################
  #  "First tier" - improvements: -336.21 meV to -36.85 meV
       hydro 3 d 4.3
       hydro 2 p 1.6
       hydro 4 f 7.2
       ionic 4 s auto
  #  "Second tier" - improvements: -14.39 meV to -1.49 meV
  #     hydro 5 g 10.4
  #     hydro 4 p 4.5
  #     hydro 4 d 6.2
  #     hydro 4 f 11.2
  #     hydro 1 s 0.65
  #     hydro 6 h 15.2
  #  "Third tier" - improvements: -0.46 meV and below
  #     hydro 5 g 14.4
  #     ionic 4 d auto
  #     hydro 4 f 22.4
  #     hydro 5 f 7.4
  #     hydro 5 p 8
  #     hydro 5 s 9.4
  #  "Fourth tier" - improvements: -0.12 meV and below
  #     hydro 5 d 11.6
  #     hydro 6 h 18
  #     hydro 4 p 4
  #     hydro 5 f 16
  #     hydro 4 s 3.9
  #
  #
  
  -----------------------------------------------------------------------
  Completed first pass over input file control.in .
  -----------------------------------------------------------------------
  
  
  -----------------------------------------------------------------------
  Parsing geometry.in (first pass over file, find array dimensions only).
  The contents of geometry.in will be repeated verbatim below
  unless switched off by setting 'verbatim_writeout .false.' .
  in the first line of geometry.in .
  -----------------------------------------------------------------------
  
  #
  # This is the geometry file that corresponds to the current relaxation step.
  # If you do not want this file to be written, set the "write_restart_geometry" flag to .false.
  #  aims_uuid : E847E393-BC29-40F2-A787-11DDFD591E94
  #
  lattice_vector      5.85107144      0.00000000      0.00000000
  lattice_vector      0.00000000      5.95711343      0.00000000
  lattice_vector      0.00000000      0.00000000      7.44874368
  atom_frac       0.50226358      0.00169504      0.00158188 Pd
  atom_frac       0.00168131      0.00167199      0.50237145 Pd
  atom_frac       0.00174300      0.50226277      0.00158263 Pd
  atom_frac       0.50232445      0.50224235      0.50237479 Pd
  atom_frac       0.61410418      0.11973718      0.40423986 Se
  atom_frac       0.89101287      0.88480435      0.90473623 Se
  atom_frac       0.11349757      0.38428225      0.60041448 Se
  atom_frac       0.39042269      0.62032280      0.09972281 Se
  atom_frac       0.39044782      0.88483354      0.60041528 Se
  atom_frac       0.11350113      0.11972510      0.09972325 Se
  atom_frac       0.89101396      0.62032522      0.40425282 Se
  atom_frac       0.61412627      0.38423623      0.90472337 Se
  #
  # What follows is the current estimated Hessian matrix constructed by the BFGS algorithm.
  # This is NOT the true Hessian matrix of the system.
  # If you do not want this information here, switch it off using the "hessian_to_restart_geometry" keyword.
  #
  trust_radius             0.0122100272
  hessian_block                1       1           6.396527          -0.545280          -2.458873          -0.545280           7.21799
  hessian_block                1       2          -0.763569           1.428546           0.407479          -0.714762           1.67625
  hessian_block                1       3          -1.170160           2.021107           0.610999           0.232306          -0.48360
  hessian_block                1       4           0.570938           0.114471          -0.130421           0.000250          -0.21374
  hessian_block                1       5           0.507453          -1.131754          -0.463411          -1.183805           1.40926
  hessian_block                1       6          -0.687613          -1.526540           0.024208           1.647428          -2.17812
  hessian_block                1       7          -0.994249           1.104252           0.584064           0.480735          -0.35763
  hessian_block                1       8           0.263190          -1.181562           0.071879          -0.053860          -2.36839
  hessian_block                1       9          -0.182166           0.079007           0.214781           0.553082          -1.75832
  hessian_block                1      10          -3.715247           2.767143           1.851601          -1.428063           1.71506
  hessian_block                1      11           0.863652          -1.594639          -0.617345           0.874464          -0.75088
  hessian_block                1      12           0.477156          -1.534751          -0.094962           0.137503          -2.26084
  hessian_block                2       2           7.191576           2.014179           3.447276           2.014179           9.46281
  hessian_block                2       3           2.637308           3.353482           2.149060          -0.855699          -1.04189
  hessian_block                2       4           0.088543           0.441066           0.071540          -0.231731           0.82152
  hessian_block                2       5          -2.927868          -1.175278          -1.809790           1.813381           1.24833
  hessian_block                2       6          -2.241025          -2.505746          -1.499835          -2.306804          -3.51848
  hessian_block                2       7           0.963683           0.744994           0.590117          -1.082867          -2.46064
  hessian_block                2       8          -1.008953          -1.593657          -0.997232          -0.430364          -1.08424
  hessian_block                2       9          -1.947976           0.445758          -0.907552          -0.967758          -2.91219
  hessian_block                2      10           2.760068           3.039731           2.081859           2.695297           4.11168
  hessian_block                2      11          -1.802952          -2.464291          -1.393258          -1.557733          -4.55445
  hessian_block                2      12          -1.382923          -1.585477          -1.040208          -0.518446          -0.10167
  hessian_block                3       3           9.264525          -1.178798           4.048015          -1.178798           6.46134
  hessian_block                3       4           0.158974          -0.212518          -0.162391           0.056564           0.08151
  hessian_block                3       5          -1.887792           0.470543          -1.098251           1.840520          -0.08917
  hessian_block                3       6          -3.349244           1.116559          -2.095306          -3.030642          -1.07111
  hessian_block                3       7           1.593942          -0.293033           1.144841          -0.745846           0.14407
  hessian_block                3       8          -3.327629           0.063533          -1.547760          -1.471777          -0.19449
  hessian_block                3       9          -0.167732           0.309690           0.206938          -2.384757           0.37428
  hessian_block                3      10           3.897039          -0.365763           2.280335           4.806073          -3.03692
  hessian_block                3      11          -2.335358           0.584187          -1.346732          -2.146802           0.55025
  hessian_block                3      12          -3.747960           0.128993          -1.823947          -1.119124          -0.04723
  hessian_block                4       4           5.952073           0.145586          -1.988752           0.145586           6.88311
  hessian_block                4       5          -0.398287           0.450788          -0.075666          -0.021351          -2.00502
  hessian_block                4       6           0.150389           0.194137          -0.404387          -0.025202          -0.60223
  hessian_block                4       7          -2.103754          -0.698946           1.021402          -0.136184          -0.25155
  hessian_block                4       8          -0.202137          -0.290779          -0.407477           0.083035          -0.58887
  hessian_block                4       9          -0.276486           0.625995           0.146853           0.277845          -2.41904
  hessian_block                4      10          -0.654990          -0.084606           0.525213          -0.422551           1.00035
  hessian_block                4      11          -1.694654          -0.284857           0.459990          -0.710341          -1.40851
  hessian_block                4      12          -0.024697           0.117598          -0.335014           0.466145           0.34949
  hessian_block                5       5           5.985821          -1.393166          -0.779592          -1.393166           7.71254
  hessian_block                5       6           1.517904          -2.314066           0.370570           1.626491          -2.45397
  hessian_block                5       7          -1.115530           2.218973          -0.437000          -0.450439          -0.53139
  hessian_block                5       8           0.704604          -0.693149           0.724228           0.852956          -0.64692
  hessian_block                5       9          -1.419978          -0.293966           1.688904           0.744334          -3.55589
  hessian_block                5      10          -1.821074           3.063335          -0.456971          -1.760337           2.80791
  hessian_block                5      11           1.444451          -2.325968           0.668093           1.827840          -1.20204
  hessian_block                5      12           0.976207          -0.710740          -0.066564          -0.061979          -1.04659
  hessian_block                6       6           8.092156           3.210542           7.241879           3.210542           8.91426
  hessian_block                6       7          -1.491340          -1.855489          -3.382716           1.272471           1.09844
  hessian_block                6       8           0.946064           1.583209           2.452562           0.908880           1.09759
  hessian_block                6       9          -0.019129           0.049942          -0.191106           2.462851           3.25183
  hessian_block                6      10          -5.140690          -4.951067          -9.826160          -4.462664          -5.79434
  hessian_block                6      11           2.078569           2.505235           4.111303           0.878876           2.24369
  hessian_block                6      12           1.709873           1.546359           3.039629           0.764701           0.65948
  hessian_block                7       7           6.262666          -0.018739           1.087723          -0.018739           6.31982
  hessian_block                7       8          -0.701605           0.216697           0.072454          -0.365675          -0.10343
  hessian_block                7       9           0.450390           0.572050          -0.235414          -1.946869           0.31525
  hessian_block                7      10           2.214107          -1.658944          -0.335437           2.251185          -1.47405
  hessian_block                7      11          -2.895931           1.111974          -1.715268          -0.293532          -1.74176
  hessian_block                7      12          -0.616469           0.439091           0.555327          -0.847120           0.68990
  hessian_block                8       8           5.233599           0.409680          -1.693405           0.409680           5.92262
  hessian_block                8       9           0.184102          -0.508817          -0.143581           1.134631           0.84506
  hessian_block                8      10          -1.334105          -1.194703           2.531511          -2.059288          -1.49925
  hessian_block                8      11           1.023752           0.363636          -1.578440           1.247173           1.59112
  hessian_block                8      12          -0.214969           1.407010           0.847451           1.163509          -1.32377
  hessian_block                9       9           5.040495          -0.595873          -0.783900          -0.595873           8.31060
  hessian_block                9      10           0.111373          -2.646578           0.115870          -0.090896          -3.12913
  hessian_block                9      11          -0.280224           2.484660          -0.404767          -0.743700           1.90766
  hessian_block                9      12           0.073241           0.884433           0.521441           0.150809           0.41692
  hessian_block               10      10          10.044702           5.057451           6.517602           5.057451          11.38436
  hessian_block               10      11          -2.609867          -2.669060          -2.613928          -1.718695          -3.36829
  hessian_block               10      12          -2.185407          -1.917148          -2.136078          -1.307304          -1.07035
  hessian_block               11      11           6.800347           1.474137           1.541384           1.474137           8.69792
  hessian_block               11      12           0.974123           0.868317          -0.018729           0.814986          -0.31767
  hessian_block               12      12           5.527737           0.356318           0.551656           0.356318           5.69937
  hessian_block_lv             1       1          23.308472          -3.535717           5.500576          -3.535717          23.82483
  hessian_block_lv_atom        1       1          -0.390987          -0.456173          -0.655585           0.686141           1.09370
  hessian_block_lv_atom        1       2           0.707442           0.979618           1.010107           1.548668           1.77021
  hessian_block_lv_atom        1       3           1.115870           1.585277           1.527292          -0.138270          -0.04727
  hessian_block_lv_atom        1       4          -0.022976           0.044717          -0.135877           0.666656           0.56321
  hessian_block_lv_atom        1       5          -0.547740          -0.827093          -0.519162           1.327433           1.83301
  hessian_block_lv_atom        1       6          -1.369040          -2.390467          -1.901288          -1.987092          -2.56672
  hessian_block_lv_atom        1       7           0.439804           0.606745           1.192234          -1.006948          -1.28571
  hessian_block_lv_atom        1       8          -0.597852          -0.700127          -0.888491          -0.456857          -0.59491
  hessian_block_lv_atom        1       9           0.153389           0.261007          -0.145198          -1.888624          -2.32864
  hessian_block_lv_atom        1      10           1.577062           2.684703           2.421139           2.235195           2.66350
  hessian_block_lv_atom        1      11          -0.728788          -1.060491          -1.402152          -0.649196          -0.54171
  hessian_block_lv_atom        1      12          -0.336182          -0.727714          -0.503021          -0.337106          -0.55866
  symmetry_n_params 39 3 36
  symmetry_params a1 b2 c3 x0 x1 x2 x3 x4 x5 x6 x7 x8 x9 x10 x11 x12 x13 x14 x15 x16 x17 x18 x19 x20 x21 x22 x23 x24 x25 x26 x27 x28 x
  symmetry_lv a1 , 0 , 0
  symmetry_lv 0 , b2 , 0
  symmetry_lv 0 , 0 , c3
  symmetry_frac x0 , x1 , x2
  symmetry_frac x3 , x4 , x5
  symmetry_frac x6 , x7 , x8
  symmetry_frac x9 , x10 , x11
  symmetry_frac x12 , x13 , x14
  symmetry_frac x15 , x16 , x17
  symmetry_frac x18 , x19 , x20
  symmetry_frac x21 , x22 , x23
  symmetry_frac x24 , x25 , x26
  symmetry_frac x27 , x28 , x29
  symmetry_frac x30 , x31 , x32
  symmetry_frac x33 , x34 , x35
  
  -----------------------------------------------------------------------
  Completed first pass over input file geometry.in .
  -----------------------------------------------------------------------
  

  Basic array size parameters:
  | Number of species                 :        2
  | Number of atoms                   :       12
  | Number of lattice vectors         :        3
  | Max. basis fn. angular momentum   :        4
  | Max. atomic/ionic basis occupied n:        5
  | Max. number of basis fn. types    :        3
  | Max. radial fns per species/type  :       10
  | Max. logarithmic grid size        :     1444
  | Max. radial integration grid size :      125
  | Max. angular integration grid size:      434
  | Max. angular grid division number :        8
  | Radial grid for Hartree potential :     1444
  | Number of spin channels           :        1

------------------------------------------------------------
          Reading file control.in.
------------------------------------------------------------
  XC: Using PBE gradient-corrected functionals.
  Using libMBD for calculating MBD and TS energies
  Spin treatment: No spin polarisation.
  Found k-point grid:        15        15        12
  Scalar relativistic treatment of kinetic energy: on-site free-atom approximation to ZORA.
  Max energy increase before discarding BFGS move:   0.100000E-01 eV
  Assuming qualitatively harmonic for steps shorter than   0.150000E-01 A.
  S.C.F. convergence parameters will be adjusted in iteration number     3 of each new s.c.f. cycle.
  Geometry relaxation: Modified BFGS - TRM (trust radius method) for lattice optimization.
  Convergence accuracy for geometry relaxation: Maximum force <   0.100000E-01 eV/A.
 
  Reading configuration options for species Pd                  .
  | Found nuclear charge :  46.0000
  | Found atomic mass :    106.420000000000      amu
  | Found l_max for Hartree potential  :   6
  | Found cutoff potl. onset [A], width [A], scale factor :    4.00000    2.00000    1.00000
  | Threshold for basis-dependent cutoff potential is   0.100000E-03
  | Found data for basic radial integration grid :    62 points, outermost radius =    7.000 A
  | Found multiplier for basic radial grid :   2
  | Found angular grid specification: user-specified.
  | Specified grid contains     6 separate shells.
  | Check grid settings after all constraints further below.
  | Found free-atom valence shell :  5 s   1.000
  | Found free-atom valence shell :  4 p   6.000
  | Found free-atom valence shell :  4 d   9.000
  | Found free-ion valence shell :  5 s   0.000
  | Found free-ion valence shell :  4 p   6.000
  | Found free-ion valence shell :  4 d   8.000
  | Found ionic basis function :  5 p , default cutoff radius.
  | Found hydrogenic basis function :  4 f   8.000
  | Found hydrogenic basis function :  5 g  10.000
  | Found hydrogenic basis function :  3 s   2.600
  | Found hydrogenic basis function :  3 d   2.500
  Species Pd                  : Missing cutoff potential type.
  Defaulting to exp(1/x)/(1-x)^2 type cutoff potential.
  Species Pd: No 'logarithmic' tag. Using default grid for free atom:
  | Default logarithmic grid data [bohr] : 0.1000E-03 0.1000E+03 0.1012E+01
  | Will include ionic basis functions of  2.0-fold positive Pd                   ion.
  Species Pd: On-site basis accuracy parameter (for Gram-Schmidt orthonormalisation) not specified.
  Using default value basis_acc =  0.1000000E-03.
  Species Pd                  : Using default innermost maximum threshold i_radial=  2 for radial functions.
  Species Pd                  : Default cutoff onset for free atom density etc. : 0.40000000E+01 AA.
  Species Pd                  : Basic radial grid will be enhanced according to radial_multiplier =   2, to contain   125 grid points.
 
  Reading configuration options for species Se                  .
  | Found nuclear charge :  34.0000
  | Found atomic mass :    78.9600000000000      amu
  | Found l_max for Hartree potential  :   6
  | Found cutoff potl. onset [A], width [A], scale factor :    4.00000    2.00000    1.00000
  | Threshold for basis-dependent cutoff potential is   0.100000E-03
  | Found data for basic radial integration grid :    55 points, outermost radius =    7.000 A
  | Found multiplier for basic radial grid :   2
  | Found angular grid specification: user-specified.
  | Specified grid contains     5 separate shells.
  | Check grid settings after all constraints further below.
  | Found free-atom valence shell :  4 s   2.000
  | Found free-atom valence shell :  4 p   4.000
  | Found free-atom valence shell :  3 d  10.000
  | Found free-ion valence shell :  4 s   1.000
  | Found free-ion valence shell :  4 p   3.000
  | Found free-ion valence shell :  3 d  10.000
  | Found hydrogenic basis function :  3 d   4.300
  | Found hydrogenic basis function :  2 p   1.600
  | Found hydrogenic basis function :  4 f   7.200
  | Found ionic basis function :  4 s , default cutoff radius.
  Species Se                  : Missing cutoff potential type.
  Defaulting to exp(1/x)/(1-x)^2 type cutoff potential.
  Species Se: No 'logarithmic' tag. Using default grid for free atom:
  | Default logarithmic grid data [bohr] : 0.1000E-03 0.1000E+03 0.1012E+01
  | Will include ionic basis functions of  2.0-fold positive Se                   ion.
  Species Se: On-site basis accuracy parameter (for Gram-Schmidt orthonormalisation) not specified.
  Using default value basis_acc =  0.1000000E-03.
  Species Se                  : Using default innermost maximum threshold i_radial=  2 for radial functions.
  Species Se                  : Default cutoff onset for free atom density etc. : 0.40000000E+01 AA.
  Species Se                  : Basic radial grid will be enhanced according to radial_multiplier =   2, to contain   111 grid points.
 
  Finished reading input file 'control.in'. Consistency checks are next.
 
  MPI_IN_PLACE appears to work with this MPI implementation.
  | Keeping use_mpi_in_place .true. (see manual).
  Target number of points in a grid batch is not set. Defaulting to  100
  Method for grid partitioning is not set. Defaulting to parallel hash+maxmin partitioning.
  Batch size limit is not set. Defaulting to    200
  By default, will store active basis functions for each batch.
  If in need of memory, prune_basis_once .false. can be used to disable this option.
  communication_type for Hartree potential was not specified.
  Defaulting to calc_hartree .
  Defaulting to Pulay charge density mixer.
  Pulay mixer: Number of relevant iterations not set.
  Defaulting to    8 iterations.
  Pulay mixer: Number of initial linear mixing iterations not set.
  Defaulting to    0 iterations.
  Work space size for distributed Hartree potential not set.
  Defaulting to   0.200000E+03 MB.
  Mixing parameter for charge density mixing has not been set.
  Using default: charge_mix_param =     0.0500.
  The mixing parameter will be adjusted in iteration number     3 of each s.c.f. cycle (i.e., each geometry step).
  Algorithm-dependent basis array size parameters:
  | n_max_pulay                         :        8
  Maximum number of self-consistency iterations not provided.
  Presetting  1000 iterations.
  Presetting      1001 iterations before the initial mixing cycle
  is restarted anyway using the sc_init_iter criterion / keyword.
  Presetting a factor      1.000 between actual scf density residual
  and density convergence criterion sc_accuracy_rho below which sc_init_iter
  takes no effect.
 * No s.c.f. convergence criteria (sc_accuracy_*) were provided in control.in.
 * The run will proceed with a reasonable default guess, but please check whether.
 * the s.c.f. cycles seem to take too much or too little time.
  No maximum number of relaxation steps, defaulting to     1000
  Using explicit Hessian from geometry.in.
  Maximum energy tolerance by which TRM/BFGS trajectory may increase over multiple steps:   0.300000E-02
  No trust radius initializer. Defaulting to   0.200000E+00 A.
  Unit cell relaxation: Unit cell will be relaxed fully.
  Unit cell relaxation: Analytical stress will be used.
  Analytical stress will be computed.
  Analytical stress calculation: Only the upper triangle is calculated.
                                 Final output is symmetrized.
  Analytical stress calculation: scf convergence accuracy of stress not set.
                                 Analytical stress self-consistency will not be checked explicitly.
                                 Be sure to set other criteria like sc_accuracy_rho tight enough.
 * Notice: The s.c.f. convergence criterion sc_accuracy_rho was not provided.
 * We used to stop in this case, and ask the user to provide reasonable
 * scf convergence criteria. However, this led some users to employ criteria
 * that led to extremely long run times, e.g., for simple relaxation.
 * We now preset a default value for sc_accuracy_rho if it is not set.
 * You may still wish to check if this setting is too tight or too loose for your needs.
 * Based on n_atoms, FHI-aims chose sc_accuracy_rho =  0.141421E-05 .
  Force calculation: scf convergence accuracy of forces not set.
  Defaulting to 'sc_accuracy_forces not_checked'.
  Handling of forces: Unphysical translation and rotation will be removed from forces.
  No accuracy limit for integral partition fn. given. Defaulting to  0.1000E-14.
  No threshold value for u(r) in integrations given. Defaulting to  0.1000E-05.
  No occupation type (smearing scheme) given. Defaulting to Gaussian broadening, width =  0.1000E-01 eV.
  The width will be adjusted in iteration number     3 of each s.c.f. cycle (i.e., each geometry step).
  S.C.F. convergence parameters will be adjusted in iteration number     3 of the first full s.c.f. cycle only.
  No accuracy for occupation numbers given. Defaulting to  0.1000E-12.
  No threshold value for occupation numbers given. Defaulting to  0.0000E+00.
  No accuracy for fermi level given. Defaulting to  0.1000E-19.
  Maximum # of iterations to find E_F not set. Defaulting to  200.
  Preferred method for the eigenvalue solver ('KS_method') not specified in 'control.in'.
  Defaulting to serial version, LAPACK (via ELSI), since more k-points than CPUs available.
  Will not use alltoall communication since running on < 1024 CPUs.
  Threshold for basis singularities not set.
  Default threshold for basis singularities:  0.1000E-04
  partition_type (choice of integration weights) for integrals was not specified.
  | Using a version of the partition function of Stratmann and coworkers ('stratmann_sparse').
  | At each grid point, the set of atoms used to build the partition table is smoothly restricted to
  | only those atoms whose free-atom density would be non-zero at that grid point.
  Partitioning for Hartree potential was not defined. Using partition_type for integrals.
  | Adjusted default value of keyword multip_moments_threshold to:       0.10000000E-11
  | This value may affect high angular momentum components of the Hartree potential in periodic systems.
  Angular momentum expansion for Kerker preconditioner not set explicitly.
  | Using default value of   0
  No explicit requirement for turning off preconditioner.
  | By default, it will be turned off when the charge convergence reaches
  | sc_accuracy_rho  =   0.141421E-05
  No special mixing parameter while Kerker preconditioner is on.
  Using default: charge_mix_param =     0.0500.
  No q(lm)/r^(l+1) cutoff set for long-range Hartree potential.
  | Using default value of  0.100000E-09 .
  | Verify using the multipole_threshold keyword.
  Defaulting to new monopole extrapolation.
  Density update method: automatic selection selected.
  Using density matrix based charge density update.
  Using density matrix based charge density update.
  Using packed matrix style: index .
  Geometry relaxation: A file "geometry.in.next_step" is written out by default after each step.
  | This file contains the geometry of the current relaxation step as well as
  | the current Hessian matrix needed to restart the relaxation algorithm.
  | If you do not want part or all of this information, use the keywords
  | "write_restart_geometry" or "hessian_to_restart_geometry" to switch the output off.
  Defaulting to use time-reversal symmetry for k-point grid.
  Charge integration errors on the 3D integration grid will be compensated
  by explicit normalization and distribution of residual charges.
  Use the "compensate_multipole_errors" flag to change this behaviour.
------------------------------------------------------------


------------------------------------------------------------
          Reading geometry description geometry.in.
------------------------------------------------------------
  Input structure read successfully.
  The structure contains       12 atoms,  and a total of        456.000 electrons.

  Input geometry:
  | Unit cell:
  |        5.85107144        0.00000000        0.00000000
  |        0.00000000        5.95711343        0.00000000
  |        0.00000000        0.00000000        7.44874368
  | Atomic structure:
  |       Atom                x [A]            y [A]            z [A]
  |    1: Species Pd            2.93878009        0.01009755        0.01178302
  |    2: Species Pd            0.00983746        0.00996023        3.74203616
  |    3: Species Pd            0.01019842        2.99203629        0.01178861
  |    4: Species Pd            2.93913624        2.99191465        3.74206104
  |    5: Species Se            3.59316743        0.71328796        3.01107910
  |    6: Species Se            5.21337996        5.27087988        6.73914828
  |    7: Species Se            0.66408239        2.28921295        4.47233356
  |    8: Species Se            2.28439105        3.69533328        0.74280965
  |    9: Species Se            2.28453809        5.27105376        4.47233952
  |   10: Species Se            0.66410322        0.71321600        0.74281293
  |   11: Species Se            5.21338633        3.69534770        3.01117564
  |   12: Species Se            3.59329668        2.28893881        6.73905248

  Lattice parameters for 3D lattice (in Angstroms) :     5.851071    5.957113    7.448744
  Angle(s) between unit vectors (in degrees)       :    90.000000   90.000000   90.000000

  | The smallest distance between any two atoms is         2.40054545 AA.
  | The first atom of this pair is atom number                      6 .
  | The second atom of this pair is atom number                    10 .
  | Wigner-Seitz cell of the first atom image           0     0     0 .
  | (The Wigner-Seitz cell of the second atom is 0 0 0  by definition.)

  Symmetry information by spglib:
  | Precision set to  0.1E-04
  | Number of Operations  : 1
  | Space group           : 1
  | International         : P1        T
  | Schoenflies           : C1^1

  Quantities derived from the lattice vectors:
  | Reciprocal lattice vector 1:  1.073852  0.000000  0.000000
  | Reciprocal lattice vector 2:  0.000000  1.054737  0.000000
  | Reciprocal lattice vector 3:  0.000000  0.000000  0.843523
  | Unit cell volume                               :   0.259630E+03  A^3

  Range separation radius for Ewald summation (hartree_convergence_parameter):      4.00076078 bohr.

  Fractional coordinates:
                         L1                L2                L3
       atom_frac         0.50226358        0.00169504        0.00158188  Pd
       atom_frac         0.00168131        0.00167199        0.50237145  Pd
       atom_frac         0.00174300        0.50226277        0.00158263  Pd
       atom_frac         0.50232445        0.50224235        0.50237479  Pd
       atom_frac         0.61410418        0.11973718        0.40423986  Se
       atom_frac         0.89101287        0.88480435        0.90473623  Se
       atom_frac         0.11349757        0.38428225        0.60041448  Se
       atom_frac         0.39042269        0.62032280        0.09972281  Se
       atom_frac         0.39044782        0.88483354        0.60041528  Se
       atom_frac         0.11350113        0.11972510        0.09972325  Se
       atom_frac         0.89101396        0.62032522        0.40425282  Se
       atom_frac         0.61412627        0.38423623        0.90472337  Se

  Number of empty states per atom not set in control.in - providing a guess from actual geometry.
  | Total number of empty states used during s.c.f. cycle:       66
  If you use a very high smearing, use empty_states (per atom!) in control.in to increase this value.

  Structure-dependent array size parameters: 
  | Maximum number of distinct radial functions  :       27
  | Maximum number of basis functions            :      468
  | Number of Kohn-Sham states (occupied + empty):      294
------------------------------------------------------------

------------------------------------------------------------
          Preparing all fixed parts of the calculation.
------------------------------------------------------------
  Determining machine precision:
    2.225073858507201E-308
  Setting up grids for atomic and cluster calculations.

  Creating wave function, potential, and density for free atoms.

  Species: Pd

  List of occupied orbitals and eigenvalues:
    n    l              occ      energy [Ha]    energy [eV]
    1    0           2.0000      -913.269104    -24851.3168
    2    0           2.0000      -130.434372     -3549.2998
    3    0           2.0000       -23.521804      -640.0609
    4    0           2.0000        -3.256918       -88.6253
    5    0           1.0000        -0.157260        -4.2793
    2    1           6.0000      -116.910756     -3181.3035
    3    1           6.0000       -19.103344      -519.8284
    4    1           6.0000        -1.998052       -54.3697
    3    2          10.0000       -12.098182      -329.2083
    4    2           9.0000        -0.243389        -6.6230


  Species: Se

  List of occupied orbitals and eigenvalues:
    n    l              occ      energy [Ha]    energy [eV]
    1    0           2.0000      -466.337810    -12689.6975
    2    0           2.0000       -59.202598     -1610.9847
    3    0           2.0000        -7.847116      -213.5309
    4    0           2.0000        -0.634372       -17.2621
    2    1           6.0000       -52.061107     -1416.6548
    3    1           6.0000        -5.620941      -152.9536
    4    1           4.0000        -0.238469        -6.4891
    3    2          10.0000        -1.951949       -53.1152

  Creating fixed part of basis set: Ionic, confined, hydrogenic.
 
  Pd                   ion:

  List of free ionic orbitals and eigenvalues:
    n    l      energy [Ha]    energy [eV]
    1    0      -914.099884    -24873.9234
    2    0      -131.248265     -3571.4470
    3    0       -24.332473      -662.1203
    4    0        -4.059276      -110.4585
    2    1      -117.724296     -3203.4411
    3    1       -19.913908      -541.8850
    4    1        -2.795328       -76.0648
    3    2       -12.908733      -351.2645
    4    2        -1.004248       -27.3270


  List of ionic basis orbitals and eigenvalues:
    n    l      energy [Ha]    energy [eV]    outer radius [A]
    5    1        -0.516938       -14.0666       5.427025

 
  Pd                   hydrogenic:
 
  List of hydrogenic basis orbitals: 
    n    l      effective z      eigenvalue [eV]  inner max. [A]     outer max. [A]     outer radius [A]   
    4    3         8.000000       -54.4226           1.054686           1.054686           4.629581
    5    4        10.000000       -54.4226           1.330451           1.330451           5.043202
    3    0         2.600000        -9.8948           0.150992           2.606197           5.493778
    3    2         2.500000        -9.3396           1.873517           1.873517           5.493778
 
 
  Se                   ion:

  List of free ionic orbitals and eigenvalues:
    n    l      energy [Ha]    energy [eV]
    1    0      -467.261007    -12714.8189
    2    0       -60.104893     -1635.5374
    3    0        -8.743714      -237.9286
    4    0        -1.414053       -38.4783
    2    1       -52.964156     -1441.2280
    3    1        -6.516916      -177.3343
    4    1        -0.961869       -26.1738
    3    2        -2.844511       -77.4031


  List of ionic basis orbitals and eigenvalues:
    n    l      energy [Ha]    energy [eV]    outer radius [A]
    4    0        -1.414046       -38.4782       4.083166

 
  Se                   hydrogenic:
 
  List of hydrogenic basis orbitals: 
    n    l      effective z      eigenvalue [eV]  inner max. [A]     outer max. [A]     outer radius [A]   
    3    2         4.300000       -27.9518           1.103845           1.103845           5.278265
    2    1         1.600000        -8.6828           1.326010           1.326010           5.475439
    4    3         7.200000       -44.0822           1.173422           1.173422           4.965294
 

  Adding cutoff potential to free-atom effective potential.
  Creating atomic-like basis functions for current effective potential.

  Species Pd                  :

  List of atomic basis orbitals and eigenvalues:
    n    l      energy [Ha]    energy [eV]    outer radius [A]
    1    0      -913.269104    -24851.3168       0.223280
    2    0      -130.434372     -3549.2998       0.615909
    3    0       -23.521804      -640.0609       1.414312
    4    0        -3.256918       -88.6253       3.581357
    5    0        -0.157260        -4.2793       5.427025
    2    1      -116.910756     -3181.3035       0.631154
    3    1       -19.103344      -519.8284       1.540671
    4    1        -1.998052       -54.3697       4.408641
    3    2       -12.098182      -329.2083       1.806051
    4    2        -0.243389        -6.6230       5.361084


  Species Se                  :

  List of atomic basis orbitals and eigenvalues:
    n    l      energy [Ha]    energy [eV]    outer radius [A]
    1    0      -466.337810    -12689.6975       0.309561
    2    0       -59.202598     -1610.9847       0.885812
    3    0        -7.847116      -213.5309       2.355489
    4    0        -0.634372       -17.2621       5.214131
    2    1       -52.061107     -1416.6548       0.907737
    3    1        -5.620941      -152.9536       2.694529
    4    1        -0.238469        -6.4891       5.408909
    3    2        -1.951949       -53.1152       4.083166

  Assembling full basis from fixed parts.
  | Species Pd :   atomic orbital   1 s accepted.
  | Species Pd :   atomic orbital   2 s accepted.
  | Species Pd :   atomic orbital   3 s accepted.
  | Species Pd :   atomic orbital   4 s accepted.
  | Species Pd :   atomic orbital   5 s accepted.
  | Species Pd :    hydro orbital   3 s accepted.
  | Species Pd :   atomic orbital   2 p accepted.
  | Species Pd :   atomic orbital   3 p accepted.
  | Species Pd :   atomic orbital   4 p accepted.
  | Species Pd :    ionic orbital   5 p accepted.
  | Species Pd :   atomic orbital   3 d accepted.
  | Species Pd :   atomic orbital   4 d accepted.
  | Species Pd :    hydro orbital   3 d accepted.
  | Species Pd :    hydro orbital   4 f accepted.
  | Species Pd :    hydro orbital   5 g accepted.
  | Species Se :   atomic orbital   1 s accepted.
  | Species Se :   atomic orbital   2 s accepted.
  | Species Se :   atomic orbital   3 s accepted.
  | Species Se :    ionic orbital   4 s accepted.
  | Species Se :   atomic orbital   4 s accepted.
  | Species Se :   atomic orbital   2 p accepted.
  | Species Se :   atomic orbital   3 p accepted.
  | Species Se :   atomic orbital   4 p accepted.
  | Species Se :    hydro orbital   2 p accepted.
  | Species Se :   atomic orbital   3 d accepted.
  | Species Se :    hydro orbital   3 d accepted.
  | Species Se :    hydro orbital   4 f accepted.
 
  Basis size parameters after reduction:
  | Total number of radial functions:       27
  | Total number of basis functions :      468
 
  Per-task memory consumption for arrays in subroutine allocate_ext:
  |           9.993344MB.
  Testing on-site integration grid accuracy.
  |  Species  Function  <phi|h_atom|phi> (log., in eV)  <phi|h_atom|phi> (rad., in eV)
           1        1             -24851.3167505682             -24851.3148165635
           1        2              -3549.2998457785              -3549.2998098031
           1        3               -640.0608571327               -640.0608534886
           1        4                -88.6252603131                -88.6252593316
           1        5                 -4.2849374515                 -4.2849400622
           1        6                  4.9432123540                  4.9432188418
           1        7              -3181.3035399559              -3181.3035364574
           1        8               -519.8284281886               -519.8284264063
           1        9                -54.3697495804                -54.3697489261
           1       10                  0.8628369484                  0.8628370487
           1       11               -329.2082917394               -329.2082912864
           1       12                 -6.6230267036                 -6.6230265076
           1       13                  5.4924295291                  5.4924115607
           1       14                 25.0740861942                 25.0740861175
           1       15                 38.8271273823                 38.8271278029
           2       16             -12689.6974611609             -12689.6967666984
           2       17              -1610.9846578580              -1610.9846472470
           2       18               -213.5308789869               -213.5308777267
           2       19                -17.0464428502                -17.0464426496
           2       20                  6.7356859379                  6.7356842047
           2       21              -1416.6548010133              -1416.6548002108
           2       22               -152.9535734377               -152.9535727493
           2       23                 -6.4896265677                 -6.4896303794
           2       24                  5.2703037283                  5.2701679583
           2       25                -53.1152220964                -53.1152219035
           2       26                  7.6186674138                  7.6186665630
           2       27                 23.1072799052                 23.1072803137

  Preparing densities etc. for the partition functions (integrals / Hartree potential).

  Preparations completed.
  max(cpu_time)          :      0.549 s.
  Wall clock time (cpu1) :      0.612 s.
------------------------------------------------------------

------------------------------------------------------------
          Begin self-consistency loop: Initialization.

          Date     :  20200420, Time     :  204646.634
------------------------------------------------------------

  Initializing index lists of integration centers etc. from given atomic structure:
  Mapping all atomic coordinates to central unit cell.

  Initializing the k-points
  Using symmetry for reducing the k-points
  | k-points reduced from:     2700 to     1351
  | Number of k-points                             :      1351
  The eigenvectors in the calculations are COMPLEX.
  | K-points in task   0:        56
  | K-points in task   1:        57
  | K-points in task   2:        57
  | K-points in task   3:        57
  | K-points in task   4:        57
  | K-points in task   5:        57
  | K-points in task   6:        57
  | K-points in task   7:        57
  | K-points in task   8:        56
  | K-points in task   9:        56
  | K-points in task  10:        56
  | K-points in task  11:        56
  | K-points in task  12:        56
  | K-points in task  13:        56
  | K-points in task  14:        56
  | K-points in task  15:        56
  | K-points in task  16:        56
  | K-points in task  17:        56
  | K-points in task  18:        56
  | K-points in task  19:        56
  | K-points in task  20:        56
  | K-points in task  21:        56
  | K-points in task  22:        56
  | K-points in task  23:        56
  | Number of basis functions in the Hamiltonian integrals :      5582
  | Number of basis functions in a single unit cell        :       468
  | Number of centers in hartree potential         :      1319
  | Number of centers in hartree multipole         :       766
  | Number of centers in electron density summation:       595
  | Number of centers in basis integrals           :       640
  | Number of centers in integrals                 :       236
  | Number of centers in hamiltonian               :       596
  | Consuming       1815 KiB for k_phase.
  | Number of super-cells (origin) [n_cells]                     :         567
  | Number of super-cells (after PM_index) [n_cells]             :          86
  | Number of super-cells in hamiltonian [n_cells_in_hamiltonian]:          86
  | Size of matrix packed + index [n_hamiltonian_matrix_size] :     1292370

  Initializing relaxation algorithms.
  | Estimated reciprocal-space cutoff momentum G_max:         2.42766141 bohr^-1 .
  | Reciprocal lattice points for long-range Hartree potential:     418
  Partitioning the integration grid into batches with parallel hashing+maxmin method.
  | Number of batches:     4181
  | Maximal batch size:     110
  | Minimal batch size:      50
  | Average batch size:      91.877
  | Standard deviation of batch sizes:      11.375

  Integration load balanced across    24 MPI tasks.
  Work distribution over tasks is as follows:
  Task     0 has      15984 integration points.
  Task     1 has      15974 integration points.
  Task     2 has      16030 integration points.
  Task     3 has      16027 integration points.
  Task     4 has      16029 integration points.
  Task     5 has      15971 integration points.
  Task     6 has      16024 integration points.
  Task     7 has      15989 integration points.
  Task     8 has      16006 integration points.
  Task     9 has      16038 integration points.
  Task    10 has      15984 integration points.
  Task    11 has      16040 integration points.
  Task    12 has      15988 integration points.
  Task    13 has      16008 integration points.
  Task    14 has      15969 integration points.
  Task    15 has      16040 integration points.
  Task    16 has      16027 integration points.
  Task    17 has      15982 integration points.
  Task    18 has      16036 integration points.
  Task    19 has      15969 integration points.
  Task    20 has      16042 integration points.
  Task    21 has      16022 integration points.
  Task    22 has      15968 integration points.
  Task    23 has      15989 integration points.
  Initializing partition tables, free-atom densities, potentials, etc. across the integration grid (initialize_grid_storage).
  | initialize_grid_storage: Actual outermost partition radius vs. multipole_radius_free
  | (-- VB: in principle, multipole_radius_free should be larger, hence this output)
  | Species        1: Confinement radius =              6.000000000000000 AA, multipole_radius_free =              6.058219618167466 AA.
  | Species        1: outer_partition_radius set to              6.058219618167466 AA .
  | Species        2: Confinement radius =              6.000000000000000 AA, multipole_radius_free =              6.037996416842453 AA.
  | Species        2: outer_partition_radius set to              6.037996416842453 AA .
  | The sparse table of interatomic distances needs       2897.83 kbyte instead of      3276.80 kbyte of memory.
  | Net number of integration points:   384136
  | of which are non-zero points    :   322163
  | Numerical average free-atom electrostatic potential    :    -17.05674888 eV
  Renormalizing the initial density to the exact electron count on the 3D integration grid.
  | Initial density: Formal number of electrons (from input files) :     456.0000000000
  | Integrated number of electrons on 3D grid     :     456.0000472668
  | Charge integration error                      :       0.0000472668
  | Normalization factor for density and gradient :       0.9999998963
  Renormalizing the free-atom superposition density to the exact electron count on the 3D integration grid.
  | Formal number of electrons (from input files) :     456.0000000000
  | Integrated number of electrons on 3D grid     :     456.0000472668
  | Charge integration error                      :       0.0000472668
  | Normalization factor for density and gradient :       0.9999998963
  Obtaining max. number of non-zero basis functions in each batch (get_n_compute_maxes).
  | Maximal number of non-zero basis functions:     1014 in task     0
  | Maximal number of non-zero basis functions:     1042 in task     1
  | Maximal number of non-zero basis functions:     1010 in task     2
  | Maximal number of non-zero basis functions:     1037 in task     3
  | Maximal number of non-zero basis functions:     1009 in task     4
  | Maximal number of non-zero basis functions:     1016 in task     5
  | Maximal number of non-zero basis functions:     1039 in task     6
  | Maximal number of non-zero basis functions:     1020 in task     7
  | Maximal number of non-zero basis functions:     1013 in task     8
  | Maximal number of non-zero basis functions:     1025 in task     9
  | Maximal number of non-zero basis functions:     1008 in task    10
  | Maximal number of non-zero basis functions:     1014 in task    11
  | Maximal number of non-zero basis functions:     1028 in task    12
  | Maximal number of non-zero basis functions:     1031 in task    13
  | Maximal number of non-zero basis functions:     1030 in task    14
  | Maximal number of non-zero basis functions:     1015 in task    15
  | Maximal number of non-zero basis functions:     1029 in task    16
  | Maximal number of non-zero basis functions:     1008 in task    17
  | Maximal number of non-zero basis functions:     1044 in task    18
  | Maximal number of non-zero basis functions:     1059 in task    19
  | Maximal number of non-zero basis functions:     1013 in task    20
  | Maximal number of non-zero basis functions:     1023 in task    21
  | Maximal number of non-zero basis functions:     1012 in task    22
  | Maximal number of non-zero basis functions:     1011 in task    23
  Allocating      117.571 MB for KS_eigenvector_complex
  Integrating Hamiltonian matrix: batch-based integration.
  Time summed over all CPUs for integration: real work       63.634 s, elapsed       64.365 s
  Integrating overlap matrix.
  Time summed over all CPUs for integration: real work       45.985 s, elapsed       46.669 s
  Decreasing sparse matrix size:
  | Tolerance:  0.1000E-12
  Hamiltonian matrix
  | Array has  1117902 nonzero elements out of  1292370 elements
  | Sparsity factor is 0.135
  Overlap matrix
  | Array has  1031138 nonzero elements out of  1292370 elements
  | Sparsity factor is 0.202
  New size of hamiltonian matrix:     1117990

  Updating Kohn-Sham eigenvalues and eigenvectors using ELSI and the (modified) LAPACK eigensolver.
  Singularity check in k-point 24, task 0 (analysis for other k-points/tasks may follow below):
  Overlap matrix is not singular
  | Lowest and highest eigenvalues :  0.5975E-03,  0.7279E+01
  Finished singularity check of overlap matrix
  | Time :     0.077 s
  Starting LAPACK eigensolver
  Finished Cholesky decomposition
  | Time :     0.032 s
  Finished transformation to standard eigenproblem
  | Time :     0.020 s
  Finished solving standard eigenproblem
  | Time :     0.072 s
  Finished back-transformation of eigenvectors
  | Time :     0.009 s

  Obtaining occupation numbers and chemical potential using ELSI.
  | Chemical potential (Fermi level):    -4.63571760 eV
  Writing Kohn-Sham eigenvalues.
  K-point:       1 at    0.000000    0.000000    0.000000 (in units of recip. lattice)

  State    Occupation    Eigenvalue [Ha]    Eigenvalue [eV]
      1       2.00000        -913.279535       -24851.60058
      2       2.00000        -913.279519       -24851.60014
      3       2.00000        -913.279518       -24851.60011
      4       2.00000        -913.279394       -24851.59674
      5       2.00000        -466.350402       -12690.04011
      6       2.00000        -466.350335       -12690.03829
      7       2.00000        -466.350284       -12690.03688
      8       2.00000        -466.350275       -12690.03665
      9       2.00000        -466.350270       -12690.03650
     10       2.00000        -466.350253       -12690.03603
     11       2.00000        -466.350220       -12690.03514
     12       2.00000        -466.350188       -12690.03427
     13       2.00000        -130.445119        -3549.59230
     14       2.00000        -130.445103        -3549.59185
     15       2.00000        -130.445102        -3549.59183
     16       2.00000        -130.444977        -3549.58843
     17       2.00000        -116.921528        -3181.59665
     18       2.00000        -116.921519        -3181.59640
     19       2.00000        -116.921511        -3181.59620
     20       2.00000        -116.921510        -3181.59616
     21       2.00000        -116.921502        -3181.59595
     22       2.00000        -116.921501        -3181.59593
     23       2.00000        -116.921465        -3181.59493
     24       2.00000        -116.921448        -3181.59448
     25       2.00000        -116.921447        -3181.59446
     26       2.00000        -116.921385        -3181.59277
     27       2.00000        -116.921377        -3181.59253
     28       2.00000        -116.921323        -3181.59108
     29       2.00000         -59.215618        -1611.33894
     30       2.00000         -59.215549        -1611.33708
     31       2.00000         -59.215497        -1611.33565
     32       2.00000         -59.215489        -1611.33543
     33       2.00000         -59.215483        -1611.33527
     34       2.00000         -59.215465        -1611.33479
     35       2.00000         -59.215432        -1611.33389
     36       2.00000         -59.215400        -1611.33301
     37       2.00000         -52.074133        -1417.00926
     38       2.00000         -52.074110        -1417.00863
     39       2.00000         -52.074066        -1417.00744
     40       2.00000         -52.074059        -1417.00725
     41       2.00000         -52.074040        -1417.00674
     42       2.00000         -52.074014        -1417.00601
     43       2.00000         -52.074004        -1417.00574
     44       2.00000         -52.074000        -1417.00562
     45       2.00000         -52.073992        -1417.00541
     46       2.00000         -52.073987        -1417.00529
     47       2.00000         -52.073982        -1417.00514
     48       2.00000         -52.073981        -1417.00513
     49       2.00000         -52.073974        -1417.00493
     50       2.00000         -52.073956        -1417.00445
     51       2.00000         -52.073948        -1417.00422
     52       2.00000         -52.073940        -1417.00401
     53       2.00000         -52.073932        -1417.00377
     54       2.00000         -52.073926        -1417.00362
     55       2.00000         -52.073924        -1417.00356
     56       2.00000         -52.073916        -1417.00334
     57       2.00000         -52.073909        -1417.00315
     58       2.00000         -52.073891        -1417.00267
     59       2.00000         -52.073876        -1417.00227
     60       2.00000         -52.073844        -1417.00138
     61       2.00000         -23.533316         -640.37410
     62       2.00000         -23.533298         -640.37363
     63       2.00000         -23.533297         -640.37360
     64       2.00000         -23.533164         -640.36998
     65       2.00000         -19.115112         -520.14866
     66       2.00000         -19.115095         -520.14819
     67       2.00000         -19.115090         -520.14807
     68       2.00000         -19.115024         -520.14627
     69       2.00000         -19.115007         -520.14580
     70       2.00000         -19.115005         -520.14574
     71       2.00000         -19.114957         -520.14443
     72       2.00000         -19.114870         -520.14208
     73       2.00000         -19.114486         -520.13163
     74       2.00000         -19.114470         -520.13119
     75       2.00000         -19.114469         -520.13116
     76       2.00000         -19.114340         -520.12765
     77       2.00000         -12.109919         -329.52766
     78       2.00000         -12.109901         -329.52716
     79       2.00000         -12.109899         -329.52713
     80       2.00000         -12.109883         -329.52669
     81       2.00000         -12.109865         -329.52619
     82       2.00000         -12.109864         -329.52616
     83       2.00000         -12.109764         -329.52344
     84       2.00000         -12.109729         -329.52249
     85       2.00000         -12.109537         -329.51726
     86       2.00000         -12.109520         -329.51681
     87       2.00000         -12.109517         -329.51673
     88       2.00000         -12.109480         -329.51572
     89       2.00000         -12.109464         -329.51527
     90       2.00000         -12.109463         -329.51525
     91       2.00000         -12.109397         -329.51345
     92       2.00000         -12.109387         -329.51319
     93       2.00000         -12.109380         -329.51300
     94       2.00000         -12.109379         -329.51298
     95       2.00000         -12.109332         -329.51168
     96       2.00000         -12.109249         -329.50944
     97       2.00000          -7.861940         -213.93428
     98       2.00000          -7.861859         -213.93208
     99       2.00000          -7.861800         -213.93046
    100       2.00000          -7.861797         -213.93038
    101       2.00000          -7.861785         -213.93006
    102       2.00000          -7.861765         -213.92952
    103       2.00000          -7.861729         -213.92852
    104       2.00000          -7.861693         -213.92754
    105       2.00000          -5.636346         -153.37279
    106       2.00000          -5.636278         -153.37094
    107       2.00000          -5.636217         -153.36927
    108       2.00000          -5.636199         -153.36878
    109       2.00000          -5.636194         -153.36865
    110       2.00000          -5.636175         -153.36813
    111       2.00000          -5.636130         -153.36690
    112       2.00000          -5.636104         -153.36618
    113       2.00000          -5.636096         -153.36598
    114       2.00000          -5.636009         -153.36362
    115       2.00000          -5.635944         -153.36183
    116       2.00000          -5.635937         -153.36164
    117       2.00000          -5.635920         -153.36118
    118       2.00000          -5.635906         -153.36080
    119       2.00000          -5.635842         -153.35907
    120       2.00000          -5.635815         -153.35832
    121       2.00000          -5.635423         -153.34767
    122       2.00000          -5.635344         -153.34552
    123       2.00000          -5.635296         -153.34420
    124       2.00000          -5.635286         -153.34393
    125       2.00000          -5.635277         -153.34369
    126       2.00000          -5.635261         -153.34324
    127       2.00000          -5.635230         -153.34240
    128       2.00000          -5.635193         -153.34140
    129       2.00000          -3.273988          -89.08975
    130       2.00000          -3.273964          -89.08908
    131       2.00000          -3.273961          -89.08902
    132       2.00000          -3.273767          -89.08374
    133       2.00000          -2.020309          -54.97539
    134       2.00000          -2.020285          -54.97477
    135       2.00000          -2.020236          -54.97342
    136       2.00000          -2.020010          -54.96727
    137       2.00000          -2.019293          -54.94777
    138       2.00000          -2.019289          -54.94765
    139       2.00000          -2.019234          -54.94616
    140       2.00000          -2.019012          -54.94010
    141       2.00000          -2.013055          -54.77800
    142       2.00000          -2.013044          -54.77772
    143       2.00000          -2.013040          -54.77761
    144       2.00000          -2.012869          -54.77296
    145       2.00000          -1.969364          -53.58911
    146       2.00000          -1.969246          -53.58591
    147       2.00000          -1.969170          -53.58384
    148       2.00000          -1.969143          -53.58311
    149       2.00000          -1.968287          -53.55981
    150       2.00000          -1.968209          -53.55770
    151       2.00000          -1.968132          -53.55561
    152       2.00000          -1.968112          -53.55506
    153       2.00000          -1.967824          -53.54721
    154       2.00000          -1.967790          -53.54628
    155       2.00000          -1.967712          -53.54417
    156       2.00000          -1.967705          -53.54397
    157       2.00000          -1.967697          -53.54377
    158       2.00000          -1.967649          -53.54245
    159       2.00000          -1.967571          -53.54032
    160       2.00000          -1.967560          -53.54004
    161       2.00000          -1.967407          -53.53587
    162       2.00000          -1.967368          -53.53482
    163       2.00000          -1.967355          -53.53446
    164       2.00000          -1.967309          -53.53320
    165       2.00000          -1.967295          -53.53283
    166       2.00000          -1.967288          -53.53264
    167       2.00000          -1.967269          -53.53211
    168       2.00000          -1.967246          -53.53150
    169       2.00000          -1.967246          -53.53148
    170       2.00000          -1.967228          -53.53101
    171       2.00000          -1.967224          -53.53088
    172       2.00000          -1.967213          -53.53058
    173       2.00000          -1.967173          -53.52951
    174       2.00000          -1.967166          -53.52932
    175       2.00000          -1.967152          -53.52893
    176       2.00000          -1.967124          -53.52817
    177       2.00000          -1.966733          -53.51754
    178       2.00000          -1.966686          -53.51624
    179       2.00000          -1.966623          -53.51452
    180       2.00000          -1.966611          -53.51420
    181       2.00000          -1.966378          -53.50787
    182       2.00000          -1.966339          -53.50680
    183       2.00000          -1.966272          -53.50498
    184       2.00000          -1.966266          -53.50483
    185       2.00000          -0.759603          -20.66985
    186       2.00000          -0.740857          -20.15976
    187       2.00000          -0.720632          -19.60938
    188       2.00000          -0.718872          -19.56150
    189       2.00000          -0.652594          -17.75798
    190       2.00000          -0.640671          -17.43354
    191       2.00000          -0.639267          -17.39535
    192       2.00000          -0.627528          -17.07590
    193       2.00000          -0.418499          -11.38795
    194       2.00000          -0.410723          -11.17633
    195       2.00000          -0.389415          -10.59652
    196       2.00000          -0.376461          -10.24401
    197       2.00000          -0.370697          -10.08718
    198       2.00000          -0.369244          -10.04763
    199       2.00000          -0.366752           -9.97982
    200       2.00000          -0.366197           -9.96472
    201       2.00000          -0.364771           -9.92591
    202       2.00000          -0.363049           -9.87906
    203       2.00000          -0.361271           -9.83068
    204       2.00000          -0.351821           -9.57353
    205       2.00000          -0.341766           -9.29993
    206       2.00000          -0.330810           -9.00179
    207       2.00000          -0.324449           -8.82871
    208       2.00000          -0.316414           -8.61007
    209       2.00000          -0.316262           -8.60594
    210       2.00000          -0.306272           -8.33408
    211       2.00000          -0.288656           -7.85473
    212       2.00000          -0.286404           -7.79345
    213       2.00000          -0.285250           -7.76204
    214       2.00000          -0.280081           -7.62140
    215       2.00000          -0.279123           -7.59531
    216       2.00000          -0.277260           -7.54462
    217       2.00000          -0.276249           -7.51713
    218       2.00000          -0.275726           -7.50290
    219       2.00000          -0.273701           -7.44779
    220       2.00000          -0.270353           -7.35667
    221       2.00000          -0.265372           -7.22113
    222       2.00000          -0.263622           -7.17353
    223       2.00000          -0.263336           -7.16575
    224       2.00000          -0.257765           -7.01414
    225       2.00000          -0.224348           -6.10481
    226       2.00000          -0.215293           -5.85842
    227       2.00000          -0.213033           -5.79692
    228       0.00000          -0.164979           -4.48930
    229       0.00000          -0.152208           -4.14179
    230       0.00000          -0.135257           -3.68054
    231       0.00000          -0.129921           -3.53533
    232       0.00000          -0.128553           -3.49812
    233       0.00000          -0.125689           -3.42017
    234       0.00000          -0.115482           -3.14244
    235       0.00000          -0.114805           -3.12401
    236       0.00000          -0.081981           -2.23081
    237       0.00000          -0.037400           -1.01770
    238       0.00000          -0.030350           -0.82587
    239       0.00000          -0.003102           -0.08442
    240       0.00000           0.021301            0.57963
    241       0.00000           0.025496            0.69379
    242       0.00000           0.026833            0.73017
    243       0.00000           0.057124            1.55443
    244       0.00000           0.089424            2.43336
    245       0.00000           0.102671            2.79382
    246       0.00000           0.111316            3.02907
    247       0.00000           0.118861            3.23436
    248       0.00000           0.122562            3.33509
    249       0.00000           0.125251            3.40826
    250       0.00000           0.125688            3.42014
    251       0.00000           0.137259            3.73499
    252       0.00000           0.151532            4.12338
    253       0.00000           0.160507            4.36761
    254       0.00000           0.171283            4.66085
    255       0.00000           0.176815            4.81138
    256       0.00000           0.189421            5.15440
    257       0.00000           0.191808            5.21936
    258       0.00000           0.198281            5.39550
    259       0.00000           0.219951            5.98518
    260       0.00000           0.231512            6.29975
    261       0.00000           0.247724            6.74091
    262       0.00000           0.257737            7.01337
    263       0.00000           0.267098            7.26810
    264       0.00000           0.280578            7.63492
    265       0.00000           0.280983            7.64595
[...]
  |                x                y                z                |
  |                                                                   |
  |  x        -0.00004550       0.00000133       0.00004713           |
  |  y         0.00000133      -0.00002996       0.00000644           |
  |  z         0.00004713       0.00000644      -0.00003850           |
  |                                                                   |
  |  Pressure:       0.00003799   [eV/A**3]                           |
  |                                                                   |
  +-------------------------------------------------------------------+

 * Warning: Stress tensor is anisotropic. Be aware that pressure is an isotropic quantity.


  Leaving Libmbd.

  Timings for VdW correction (Tkatchenko-Scheffler 2009 or later):
  | CPU time:       13.571 s, Wall clock time:       13.573 s.
  Removing unitary transformations (pure translations, rotations) from forces on atoms.
  Atomic forces before filtering:
  | Net force on center of mass :   0.161544E-05  0.333012E-04  0.295177E-04 eV/A
  Atomic forces after filtering:
  | Net force on center of mass :   0.000000E+00  0.000000E+00 -0.696899E-18 eV/A

  Energy and forces in a compact form:
  | Total energy uncorrected      :         -0.108791111555723E+07 eV
  | Total energy corrected        :         -0.108791111659538E+07 eV  <-- do not rely on this value for anything but (periodic) metals
  | Electronic free energy        :         -0.108791111763354E+07 eV
  Total atomic forces (unitary forces cleaned) [eV/Ang]:
  |    1         -0.530880009776424E-04         -0.399427124764953E-02          0.118949536942368E-02
  |    2          0.190095284669499E-02         -0.104302096320262E-02          0.116516384701340E-04
  |    3         -0.279899838781679E-02         -0.337750504486686E-02          0.148928581758439E-02
  |    4         -0.544750042916893E-03         -0.217205877899949E-02         -0.810281088453515E-03
  |    5          0.137261759354166E-02         -0.721648919630060E-04         -0.172781582907190E-02
  |    6          0.437777847463887E-02          0.292072597723505E-02         -0.403596004104665E-02
  |    7         -0.319100052267064E-02          0.159798679739905E-02          0.341815699165630E-02
  |    8         -0.382622051003778E-02         -0.101496124116886E-02          0.288411672446910E-02
  |    9         -0.117859661964236E-02          0.163530899401947E-02          0.320621924410708E-02
  |   10         -0.998068214637098E-03          0.195730590131253E-02          0.863645370543875E-03
  |   11          0.142960330775468E-02         -0.403187565756387E-04         -0.149189319158532E-02
  |   12          0.350977007606900E-02          0.360297325445990E-02         -0.499662100609718E-02

  ------------------------------------ 
  Start decomposition of the XC Energy 
  ------------------------------------ 
  X and C from original XC functional choice 
  Hartree-Fock Energy :          0.000000000 Ha              0.000000000 eV
  X Energy            :      -1261.088238509 Ha         -34315.956946507 eV
  C Energy            :        -23.237366165 Ha           -632.320905490 eV
  Total XC Energy     :      -1284.325604675 Ha         -34948.277851997 eV
  ------------------------------------ 
  LDA X and C from self-consistent density 
  X Energy LDA        :      -1197.518759538 Ha         -32586.143411745 eV
  C Energy LDA        :        -42.068315410 Ha          -1144.737105893 eV
  ------------------------------------ 
  End decomposition of the XC Energy 
  ------------------------------------ 

------------------------------------------------------------
  Relaxation / MD: End force evaluation.       :  max(cpu_time)    wall_clock(cpu1)
  | Time for this force evaluation             :      473.526 s         473.812 s

------------------------------------------------------------
  Geometry optimization: Attempting to predict improved coordinates.

  +-------------------------------------------------------------------+
  | Generalized derivatives on lattice vectors [eV/A]                 |
  +-------------------------------------------------------------------+
  |lattice_vector      -0.00203166       0.00005948       0.00210439  |
  |lattice_vector       0.00005842      -0.00131390       0.00028252  |
  |lattice_vector       0.00164121       0.00022433      -0.00134065  |
  +-------------------------------------------------------------------+
  | Forces on lattice vectors cleaned from atomic contributions [eV/A]|
  +-------------------------------------------------------------------+
  |lattice_vector       0.00203166      -0.00005948      -0.00210439  |
  |lattice_vector      -0.00005842       0.00131390      -0.00028252  |
  |lattice_vector      -0.00164121      -0.00022433       0.00134065  |
  +-------------------------------------------------------------------+
  Symmetrized total atomic cartesian forces [eV/Ang]:
  |   1    -0.5308800098E-04    -0.3994271248E-02     0.1189495369E-02
  |   2     0.1900952847E-02    -0.1043020963E-02     0.1165163847E-04
  |   3    -0.2798998388E-02    -0.3377505045E-02     0.1489285818E-02
  |   4    -0.5447500429E-03    -0.2172058779E-02    -0.8102810885E-03
  |   5     0.1372617594E-02    -0.7216489196E-04    -0.1727815829E-02
  |   6     0.4377778475E-02     0.2920725977E-02    -0.4035960041E-02
  |   7    -0.3191000523E-02     0.1597986797E-02     0.3418156992E-02
  |   8    -0.3826220510E-02    -0.1014961241E-02     0.2884116724E-02
  |   9    -0.1178596620E-02     0.1635308994E-02     0.3206219244E-02
  |  10    -0.9980682146E-03     0.1957305901E-02     0.8636453705E-03
  |  11     0.1429603308E-02    -0.4031875658E-04    -0.1491893192E-02
  |  12     0.3509770076E-02     0.3602973254E-02    -0.4996621006E-02
  +-------------------------------------------------------------------+
  | Symmetrized forces on lattice vectors cleaned from symmetrized
  | atomic contributions [eV/A]|
  +-------------------------------------------------------------------+
  |lattice_vector       0.00203166       0.00000000       0.00000000  |
  |lattice_vector       0.00000000       0.00131390       0.00000000  |
  |lattice_vector       0.00000000       0.00000000       0.00134065  |
  +-------------------------------------------------------------------+
  Removing unitary transformations (pure translations, rotations) from forces on atoms.
  Atomic forces before filtering:
  | Net force on center of mass :  -0.696899E-18  0.000000E+00 -0.696899E-18 eV/A
  Atomic forces after filtering:
  | Net force on center of mass :  -0.696899E-18  0.000000E+00 -0.696899E-18 eV/A
  Net remaining forces (excluding translations, rotations) in present geometry:
  || Forces on atoms   || =   0.499662E-02 eV/A.
  || Forces on lattice || =   0.203166E-02 eV/A^3.
  Maximum force component is  0.499662E-02 eV/A.
  Present geometry is converged.

  Symmetry-reduced parameters:
  | atomic   1          0.502148751601394E+00
  | atomic   2          0.222134098861638E-02
  | atomic   3          0.222470746799126E-02
  | atomic   4          0.214419650698337E-02
  | atomic   5          0.219783475299253E-02
  | atomic   6          0.502123259687756E+00
  | atomic   7          0.225548668697000E-02
  | atomic   8          0.502187104314071E+00
  | atomic   9          0.217036816041360E-02
  | atomic  10          0.502209845104884E+00
  | atomic  11          0.502222034324576E+00
  | atomic  12          0.502163943085773E+00
  | atomic  13          0.614312925217135E+00
  | atomic  14          0.120522841445134E+00
  | atomic  15          0.405336503665866E+00
  | atomic  16          0.889887500593990E+00
  | atomic  17          0.883796942743881E+00
  | atomic  18          0.905419352203799E+00
  | atomic  19          0.114433847852974E+00
  | atomic  20          0.383838583220044E+00
  | atomic  21          0.598941980281281E+00
  | atomic  22          0.390081521898168E+00
  | atomic  23          0.620527926425016E+00
  | atomic  24          0.990090805308992E-01
  | atomic  25          0.389978536868758E+00
  | atomic  26          0.883858566216985E+00
  | atomic  27          0.598960029474725E+00
  | atomic  28          0.114326002873906E+00
  | atomic  29          0.120455615776158E+00
  | atomic  30          0.990202309651842E-01
  | atomic  31          0.889998977416695E+00
  | atomic  32          0.620502156216525E+00
  | atomic  33          0.405343306593929E+00
  | atomic  34          0.614361251372008E+00
  | atomic  35          0.383807873660652E+00
  | atomic  36          0.905426092038436E+00
  | lattice  1          0.584834631445594E+01
  | lattice  2          0.595439305251563E+01
  | lattice  3          0.749885580747163E+01
  Symmetry-reduced forces:
  | atomic   1         -0.310477014859428E-03
  | atomic   2         -0.237834609668673E-01
  | atomic   3          0.891985425896334E-02
  | atomic   4          0.111174305749232E-01
  | atomic   5         -0.621055677692186E-02
  | atomic   6          0.873739568083247E-04
  | atomic   7         -0.163695119055565E-01
  | atomic   8         -0.201109925739917E-01
  | atomic   9          0.111679396021778E-01
  | atomic  10         -0.318588690579273E-02
  | atomic  11         -0.129332917033301E-01
  | atomic  12         -0.607618104583408E-02
  | atomic  13          0.802754304434675E-02
  | atomic  14         -0.429698131340063E-03
  | atomic  15         -0.129566417640772E-01
  | atomic  16          0.256027646076588E-01
  | atomic  17          0.173911504671503E-01
  | atomic  18         -0.302650823925261E-01
  | atomic  19         -0.186620761461878E-01
  | atomic  20          0.951504148444459E-02
  | atomic  21          0.256322664077316E-01
  | atomic  22         -0.223770626181752E-01
  | atomic  23         -0.604347816298849E-02
  | atomic  24          0.216275754487112E-01
  | atomic  25         -0.689284119671560E-02
  | atomic  26          0.973727251270583E-02
  | atomic  27          0.240429757986997E-01
  | atomic  28         -0.583704856464850E-02
  | atomic  29          0.116545686604232E-01
  | atomic  30          0.647635210249893E-02
  | atomic  31          0.836081523604111E-02
  | atomic  32         -0.240073724040052E-03
  | atomic  33         -0.111874919238470E-01
  | atomic  34          0.205263508889659E-01
  | atomic  35          0.214535189147557E-01
  | atomic  36         -0.374689404493066E-01
  | lattice  1          0.203166017452971E-02
  | lattice  2          0.131390062825912E-02
  | lattice  3          0.134065041382500E-02
------------------------------------------------------------
  Final atomic structure:
                         x [A]             y [A]             z [A]
  lattice_vector         5.84834631        0.00000000        0.00000000
  lattice_vector         0.00000000        5.95439305        0.00000000
  lattice_vector         0.00000000        0.00000000        7.49885581

            atom        -2.91160651        0.01322674        0.01668276  Pd
            atom         0.01254000        0.01308677       -3.73350589  Pd
            atom         0.01319087       -2.96417365        0.01627528  Pd
            atom        -2.91124922       -2.96396566       -3.73320081  Pd
            atom        -2.25563158        0.71764037        3.03955999  Se
            atom        -0.64397603       -0.69191868       -0.70924664  Se
            atom         0.66924877        2.28552579       -3.00747626  Se
            atom         2.28133183       -2.25952588        0.74245482  Se
            atom         2.28072954       -0.69155175       -3.00734091  Se
            atom         0.66861806        0.71724008        0.74253843  Se
            atom        -0.64332408       -2.25967932        3.03961101  Se
            atom        -2.25534895        2.28534294       -0.70919610  Se

  Fractional coordinates:
                         L1                L2                L3
       atom_frac        -0.49785125        0.00222134        0.00222471  Pd
       atom_frac         0.00214420        0.00219783       -0.49787674  Pd
       atom_frac         0.00225549       -0.49781290        0.00217037  Pd
       atom_frac        -0.49779015       -0.49777797       -0.49783606  Pd
       atom_frac        -0.38568707        0.12052284        0.40533650  Se
       atom_frac        -0.11011250       -0.11620306       -0.09458065  Se
       atom_frac         0.11443385        0.38383858       -0.40105802  Se
       atom_frac         0.39008152       -0.37947207        0.09900908  Se
       atom_frac         0.38997854       -0.11614143       -0.40103997  Se
       atom_frac         0.11432600        0.12045562        0.09902023  Se
       atom_frac        -0.11000102       -0.37949784        0.40534331  Se
       atom_frac        -0.38563875        0.38380787       -0.09457391  Se
------------------------------------------------------------

------------------------------------------------------------------------------
  Final output of selected total energy values:

  The following output summarizes some interesting total energy values
  at the end of a run (AFTER all relaxation, molecular dynamics, etc.).

  | Total energy of the DFT / Hartree-Fock s.c.f. calculation      :       -1087911.115557225 eV
  | Final zero-broadening corrected energy (caution - metals only) :       -1087911.116595380 eV
  | For reference only, the value of 1 Hartree used in FHI-aims is :             27.211384500 eV
  | For reference only, the overall average (free atom contribution
  | + realspace contribution) of the electrostatic potential after
  | s.c.f. convergence is                                          :            -16.967692977 eV

  Before relying on these values, please be sure to understand exactly which
  total energy value is referred to by a given number. Different objects may
  all carry the same name 'total energy'. Definitions:

  Total energy of the DFT / Hartree-Fock s.c.f. calculation:
  | Note that this energy does not include ANY quantities calculated after the
  | s.c.f. cycle, in particular not ANY RPA, MP2, etc. many-body perturbation terms.

  Final zero-broadening corrected energy:
  | For metallic systems only, a broadening of the occupation numbers at the Fermi
  | level can be extrapolated back to zero broadening by an electron-gas inspired
  | formula. For all systems that are not real metals, this value can be
  | meaningless and should be avoided.

------------------------------------------------------------------------------
  Methods described in the following list of references were used in this FHI-aims run.
  If you publish the results, please make sure to cite these reference if they apply.
  FHI-aims is an academic code, and for our developers (often, Ph.D. students
  and postdocs), scientific credit in the community is essential.
  Thank you for helping us!

  For any use of FHI-aims, please cite:

    Volker Blum, Ralf Gehrke, Felix Hanke, Paula Havu, Ville Havu,
    Xinguo Ren, Karsten Reuter, and Matthias Scheffler
    'Ab initio molecular simulations with numeric atom-centered orbitals'
    Computer Physics Communications 180, 2175-2196 (2009)
    http://dx.doi.org/10.1016/j.cpc.2009.06.022


  For the analytical stress tensor used in your run, please cite:

    Franz Knuth, Christian Carbogno, Viktor Atalla, Volker Blum, Matthias Scheffler
    'All-electron formalism for total energy strain derivatives and
    stress tensor components for numeric atom-centered orbitals'
    Computer Physics Communications 190, 33-50 (2015).
    http://dx.doi.org/10.1016/j.cpc.2015.01.003


  The provided symmetry information was generated with SPGlib:

    Atsushi Togo, Yusuke Seto, Dimitar Pashov
    SPGlib 1.7.3 obtained from http://spglib.sourceforge.net
    Copyright (C) 2008 Atsushi Togo


  The ELSI infrastructure was used in your run to solve the Kohn-Sham electronic structure.
  Please check out http://elsi-interchange.org to learn more.
  If scalability is important for your project, please acknowledge ELSI by citing:

    V. W-z. Yu, F. Corsetti, A. Garcia, W. P. Huhn, M. Jacquelin, W. Jia,
    B. Lange, L. Lin, J. Lu, W. Mi, A. Seifitokaldani, A. Vazquez-Mayagoitia,
    C. Yang, H. Yang, and V. Blum
    'ELSI: A unified software interface for Kohn-Sham electronic structure solvers'
    Computer Physics Communications 222, 267-285 (2018).
    http://dx.doi.org/10.1016/j.cpc.2017.09.007


  For the real-space grid partitioning and parallelization used in this calculation, please cite:

    Ville Havu, Volker Blum, Paula Havu, and Matthias Scheffler,
    'Efficient O(N) integration for all-electron electronic structure calculation'
    'using numerically tabulated basis functions'
    Journal of Computational Physics 228, 8367-8379 (2009).
    http://dx.doi.org/10.1016/j.jcp.2009.08.008

  Of course, there are many other important community references, e.g., those cited in the
  above references. Our list is limited to references that describe implementations in the
  FHI-aims code. The reason is purely practical (length of this list) - please credit others as well.

------------------------------------------------------------
          Leaving FHI-aims.
          Date     :  20200420, Time     :  213242.956

          Computational steps:
          | Number of self-consistency cycles          :          104
          | Number of SCF (re)initializations          :            5
          | Number of relaxation steps                 :            4

          Detailed time accounting                     :  max(cpu_time)    wall_clock(cpu1)
          | Total time                                 :     2756.231 s        2757.503 s
          | Preparation time                           :        0.549 s           0.612 s
          | Boundary condition initalization           :        0.652 s           0.656 s
          | Grid partitioning                          :        1.755 s           1.754 s
          | Preloading free-atom quantities on grid    :        4.746 s           4.747 s
          | Free-atom superposition energy             :        0.690 s           0.690 s
          | Total time for integrations                :      291.596 s         291.602 s
          | Total time for solution of K.-S. equations :      827.791 s         828.788 s
          | Total time for EV reorthonormalization     :       10.188 s           9.948 s
          | Total time for density & force components  :     1236.359 s        1236.456 s
          | Total time for mixing & preconditioning    :       73.774 s          73.823 s
          | Total time for Hartree multipole update    :        0.488 s           0.475 s
          | Total time for Hartree multipole sum       :      235.212 s         235.225 s
          | Total time for total energy evaluation     :        1.247 s           1.281 s
          | Total time for scaled ZORA corrections     :        0.000 s           0.000 s
          | Total time for vdW correction              :       67.919 s          67.936 s

          Partial memory accounting:
          | Residual value for overall tracked memory usage across tasks:     0.000000 MB (should be 0.000000 MB)
          | Peak values for overall tracked memory usage:
          |   Minimum:      281.766 MB (on task 14 after allocating d_wave)
          |   Maximum:      286.716 MB (on task  1 after allocating d_wave)
          |   Average:      283.336 MB
          | Largest tracked array allocation:
          |   Minimum:      117.571 MB (KS_eigenvector_complex on task  0)
          |   Maximum:      119.671 MB (KS_eigenvector_complex on task  1)
          |   Average:      118.184 MB
          Note:  These values currently only include a subset of arrays which are explicitly tracked.
          The "true" memory usage will be greater.

          Have a nice day.
------------------------------------------------------------
