------------------------------------------------------------
          Invoking FHI-aims ...

          When using FHI-aims, please cite the following reference:

            Volker Blum, Ralf Gehrke, Felix Hanke, Paula Havu,
            Ville Havu, Xinguo Ren, Karsten Reuter, and Matthias Scheffler,
            'Ab Initio Molecular Simulations with Numeric Atom-Centered Orbitals',
            Computer Physics Communications 180, 2175-2196 (2009)

          In addition, many other developments in FHI-aims are likely important for
          your particular application. A partial list of references is given at the end of
          this file. Thank you for giving credit to the authors of these developments.

          For any questions about FHI-aims, please visit our slack channel at

            https://fhi-aims.slack.com

          and our main development and support site at

            https://aims-git.rz-berlin.mpg.de .

          The latter site, in particular, has a wiki to collect information, as well
          as an issue tracker to log discussions, suggest improvements, and report issues
          or bugs. https://aims-git.rz-berlin.mpg.de is also the main development site
          of the project and all new and updated code versions can be obtained there.
          Please send an email to aims-coordinators@fhi-berlin.mpg.de and we will add
          you to these sites. They are for you and everyone is welcome there.

------------------------------------------------------------



  Date     :  20201121, Time     :  101456.687
  Time zero on CPU 1             :   0.789503000000000E+00  s.
  Internal wall clock time zero  :           375185696.687  s.

  FHI-aims created a unique identifier for this run for later identification
  aims_uuid : 4CF4697B-F09B-4DB5-AAA9-BCDA3D746416

  Build configuration of the current instance of FHI-aims
  -------------------------------------------------------
  FHI-aims version      : 201113
  Commit number         : 1519e9009
  CMake host system     : Linux-4.18.0-193.14.2.el8_2.x86_64
  CMake version         : 3.18.4
  Fortran compiler      : /gpfs/software/juwels/stages/2019a/software/impi/2018.5.288-iccifort-2019.3.199-GCC-8.3.0/bin64/mpiifort (Intel) version 19.0.5.20190815
  Fortran compiler flags: -O3 -ip -fp-model precise
  C compiler            : /gpfs/software/juwels/stages/2019a/software/icc/2019.5.281-GCC-8.3.0/compilers_and_libraries_2019.5.281/linux/bin/intel64/icc (Intel) version 19.0.5.20190815
  C compiler flags      : -O3 -ip -fp-model precise -std=gnu99
  CUDA compiler         : /gpfs/software/juwels/stages/2019a/software/CUDA/10.1.105/bin/nvcc
  CUDA compiler flags   : -O3 -DAdd_ -arch=sm_70 -lcublas
  Using MPI
  Using ScaLAPACK
  Using LibXC
  Using CUDA
  Using i-PI
  Using RLSY
  Linking against: /gpfs/software/juwels/stages/2019a/software/imkl/2019.3.199/mkl/lib/intel64/libmkl_scalapack_lp64.so
                   /gpfs/software/juwels/stages/2019a/software/imkl/2019.3.199/mkl/lib/intel64/libmkl_blacs_intelmpi_lp64.so
                   /gpfs/software/juwels/stages/2019a/software/imkl/2019.3.199/mkl/lib/intel64/libmkl_intel_lp64.so
                   /gpfs/software/juwels/stages/2019a/software/imkl/2019.3.199/mkl/lib/intel64/libmkl_sequential.so
                   /gpfs/software/juwels/stages/2019a/software/imkl/2019.3.199/mkl/lib/intel64/libmkl_core.so
                   /gpfs/software/juwels/stages/2019a/software/CUDA/10.1.105/lib64/libcublas.so
                   /gpfs/software/juwels/stages/2019a/software/CUDA/10.1.105/lib64/libcudart.so

  Using      288 parallel tasks.
  Task        0 on host jwc08n125.juwels reporting.
  Task        1 on host jwc08n125.juwels reporting.
  Task        2 on host jwc08n125.juwels reporting.
  Task        3 on host jwc08n125.juwels reporting.
  Task        4 on host jwc08n125.juwels reporting.
  Task        5 on host jwc08n125.juwels reporting.
  Task        6 on host jwc08n125.juwels reporting.
  Task        7 on host jwc08n125.juwels reporting.
  Task        8 on host jwc08n125.juwels reporting.
  Task        9 on host jwc08n125.juwels reporting.
  Task       10 on host jwc08n125.juwels reporting.
  Task       11 on host jwc08n125.juwels reporting.
  Task       12 on host jwc08n125.juwels reporting.
  Task       13 on host jwc08n125.juwels reporting.
  Task       14 on host jwc08n125.juwels reporting.
  Task       15 on host jwc08n125.juwels reporting.
  Task       16 on host jwc08n125.juwels reporting.
  Task       17 on host jwc08n125.juwels reporting.
  Task       18 on host jwc08n125.juwels reporting.
  Task       19 on host jwc08n125.juwels reporting.
  Task       20 on host jwc08n125.juwels reporting.
  Task       21 on host jwc08n125.juwels reporting.
  Task       22 on host jwc08n125.juwels reporting.
  Task       23 on host jwc08n125.juwels reporting.
  Task       24 on host jwc08n125.juwels reporting.
  Task       25 on host jwc08n125.juwels reporting.
  Task       26 on host jwc08n125.juwels reporting.
  Task       27 on host jwc08n125.juwels reporting.
  Task       28 on host jwc08n125.juwels reporting.
  Task       29 on host jwc08n125.juwels reporting.
  Task       30 on host jwc08n125.juwels reporting.
  Task       31 on host jwc08n125.juwels reporting.
  Task       32 on host jwc08n125.juwels reporting.
  Task       33 on host jwc08n125.juwels reporting.
  Task       34 on host jwc08n125.juwels reporting.
  Task       35 on host jwc08n125.juwels reporting.
  Task       36 on host jwc08n125.juwels reporting.
  Task       37 on host jwc08n125.juwels reporting.
  Task       38 on host jwc08n125.juwels reporting.
  Task       39 on host jwc08n125.juwels reporting.
  Task       40 on host jwc08n125.juwels reporting.
  Task       41 on host jwc08n125.juwels reporting.
  Task       42 on host jwc08n125.juwels reporting.
  Task       43 on host jwc08n125.juwels reporting.
  Task       44 on host jwc08n125.juwels reporting.
  Task       45 on host jwc08n125.juwels reporting.
  Task       46 on host jwc08n125.juwels reporting.
  Task       47 on host jwc08n125.juwels reporting.
  Task       48 on host jwc08n164.juwels reporting.
  Task       49 on host jwc08n164.juwels reporting.
  Task       50 on host jwc08n164.juwels reporting.
  Task       51 on host jwc08n164.juwels reporting.
  Task       52 on host jwc08n164.juwels reporting.
  Task       53 on host jwc08n164.juwels reporting.
  Task       54 on host jwc08n164.juwels reporting.
  Task       55 on host jwc08n164.juwels reporting.
  Task       56 on host jwc08n164.juwels reporting.
  Task       57 on host jwc08n164.juwels reporting.
  Task       58 on host jwc08n164.juwels reporting.
  Task       59 on host jwc08n164.juwels reporting.
  Task       60 on host jwc08n164.juwels reporting.
  Task       61 on host jwc08n164.juwels reporting.
  Task       62 on host jwc08n164.juwels reporting.
  Task       63 on host jwc08n164.juwels reporting.
  Task       64 on host jwc08n164.juwels reporting.
  Task       65 on host jwc08n164.juwels reporting.
  Task       66 on host jwc08n164.juwels reporting.
  Task       67 on host jwc08n164.juwels reporting.
  Task       68 on host jwc08n164.juwels reporting.
  Task       69 on host jwc08n164.juwels reporting.
  Task       70 on host jwc08n164.juwels reporting.
  Task       71 on host jwc08n164.juwels reporting.
  Task       72 on host jwc08n164.juwels reporting.
  Task       73 on host jwc08n164.juwels reporting.
  Task       74 on host jwc08n164.juwels reporting.
  Task       75 on host jwc08n164.juwels reporting.
  Task       76 on host jwc08n164.juwels reporting.
  Task       77 on host jwc08n164.juwels reporting.
  Task       78 on host jwc08n164.juwels reporting.
  Task       79 on host jwc08n164.juwels reporting.
  Task       80 on host jwc08n164.juwels reporting.
  Task       81 on host jwc08n164.juwels reporting.
  Task       82 on host jwc08n164.juwels reporting.
  Task       83 on host jwc08n164.juwels reporting.
  Task       84 on host jwc08n164.juwels reporting.
  Task       85 on host jwc08n164.juwels reporting.
  Task       86 on host jwc08n164.juwels reporting.
  Task       87 on host jwc08n164.juwels reporting.
  Task       88 on host jwc08n164.juwels reporting.
  Task       89 on host jwc08n164.juwels reporting.
  Task       90 on host jwc08n164.juwels reporting.
  Task       91 on host jwc08n164.juwels reporting.
  Task       92 on host jwc08n164.juwels reporting.
  Task       93 on host jwc08n164.juwels reporting.
  Task       94 on host jwc08n164.juwels reporting.
  Task       95 on host jwc08n164.juwels reporting.
  Task       96 on host jwc08n165.juwels reporting.
  Task       97 on host jwc08n165.juwels reporting.
  Task       98 on host jwc08n165.juwels reporting.
  Task       99 on host jwc08n165.juwels reporting.
  Task      100 on host jwc08n165.juwels reporting.
  Task      101 on host jwc08n165.juwels reporting.
  Task      102 on host jwc08n165.juwels reporting.
  Task      103 on host jwc08n165.juwels reporting.
  Task      104 on host jwc08n165.juwels reporting.
  Task      105 on host jwc08n165.juwels reporting.
  Task      106 on host jwc08n165.juwels reporting.
  Task      107 on host jwc08n165.juwels reporting.
  Task      108 on host jwc08n165.juwels reporting.
  Task      109 on host jwc08n165.juwels reporting.
  Task      110 on host jwc08n165.juwels reporting.
  Task      111 on host jwc08n165.juwels reporting.
  Task      112 on host jwc08n165.juwels reporting.
  Task      113 on host jwc08n165.juwels reporting.
  Task      114 on host jwc08n165.juwels reporting.
  Task      115 on host jwc08n165.juwels reporting.
  Task      116 on host jwc08n165.juwels reporting.
  Task      117 on host jwc08n165.juwels reporting.
  Task      118 on host jwc08n165.juwels reporting.
  Task      119 on host jwc08n165.juwels reporting.
  Task      120 on host jwc08n165.juwels reporting.
  Task      121 on host jwc08n165.juwels reporting.
  Task      122 on host jwc08n165.juwels reporting.
  Task      123 on host jwc08n165.juwels reporting.
  Task      124 on host jwc08n165.juwels reporting.
  Task      125 on host jwc08n165.juwels reporting.
  Task      126 on host jwc08n165.juwels reporting.
  Task      127 on host jwc08n165.juwels reporting.
  Task      128 on host jwc08n165.juwels reporting.
  Task      129 on host jwc08n165.juwels reporting.
  Task      130 on host jwc08n165.juwels reporting.
  Task      131 on host jwc08n165.juwels reporting.
  Task      132 on host jwc08n165.juwels reporting.
  Task      133 on host jwc08n165.juwels reporting.
  Task      134 on host jwc08n165.juwels reporting.
  Task      135 on host jwc08n165.juwels reporting.
  Task      136 on host jwc08n165.juwels reporting.
  Task      137 on host jwc08n165.juwels reporting.
  Task      138 on host jwc08n165.juwels reporting.
  Task      139 on host jwc08n165.juwels reporting.
  Task      140 on host jwc08n165.juwels reporting.
  Task      141 on host jwc08n165.juwels reporting.
  Task      142 on host jwc08n165.juwels reporting.
  Task      143 on host jwc08n165.juwels reporting.
  Task      144 on host jwc08n166.juwels reporting.
  Task      145 on host jwc08n166.juwels reporting.
  Task      146 on host jwc08n166.juwels reporting.
  Task      147 on host jwc08n166.juwels reporting.
  Task      148 on host jwc08n166.juwels reporting.
  Task      149 on host jwc08n166.juwels reporting.
  Task      150 on host jwc08n166.juwels reporting.
  Task      151 on host jwc08n166.juwels reporting.
  Task      152 on host jwc08n166.juwels reporting.
  Task      153 on host jwc08n166.juwels reporting.
  Task      154 on host jwc08n166.juwels reporting.
  Task      155 on host jwc08n166.juwels reporting.
  Task      156 on host jwc08n166.juwels reporting.
  Task      157 on host jwc08n166.juwels reporting.
  Task      158 on host jwc08n166.juwels reporting.
  Task      159 on host jwc08n166.juwels reporting.
  Task      160 on host jwc08n166.juwels reporting.
  Task      161 on host jwc08n166.juwels reporting.
  Task      162 on host jwc08n166.juwels reporting.
  Task      163 on host jwc08n166.juwels reporting.
  Task      164 on host jwc08n166.juwels reporting.
  Task      165 on host jwc08n166.juwels reporting.
  Task      166 on host jwc08n166.juwels reporting.
  Task      167 on host jwc08n166.juwels reporting.
  Task      168 on host jwc08n166.juwels reporting.
  Task      169 on host jwc08n166.juwels reporting.
  Task      170 on host jwc08n166.juwels reporting.
  Task      171 on host jwc08n166.juwels reporting.
  Task      172 on host jwc08n166.juwels reporting.
  Task      173 on host jwc08n166.juwels reporting.
  Task      174 on host jwc08n166.juwels reporting.
  Task      175 on host jwc08n166.juwels reporting.
  Task      176 on host jwc08n166.juwels reporting.
  Task      177 on host jwc08n166.juwels reporting.
  Task      178 on host jwc08n166.juwels reporting.
  Task      179 on host jwc08n166.juwels reporting.
  Task      180 on host jwc08n166.juwels reporting.
  Task      181 on host jwc08n166.juwels reporting.
  Task      182 on host jwc08n166.juwels reporting.
  Task      183 on host jwc08n166.juwels reporting.
  Task      184 on host jwc08n166.juwels reporting.
  Task      185 on host jwc08n166.juwels reporting.
  Task      186 on host jwc08n166.juwels reporting.
  Task      187 on host jwc08n166.juwels reporting.
  Task      188 on host jwc08n166.juwels reporting.
  Task      189 on host jwc08n166.juwels reporting.
  Task      190 on host jwc08n166.juwels reporting.
  Task      191 on host jwc08n166.juwels reporting.
  Task      192 on host jwc08n167.juwels reporting.
  Task      193 on host jwc08n167.juwels reporting.
  Task      194 on host jwc08n167.juwels reporting.
  Task      195 on host jwc08n167.juwels reporting.
  Task      196 on host jwc08n167.juwels reporting.
  Task      197 on host jwc08n167.juwels reporting.
  Task      198 on host jwc08n167.juwels reporting.
  Task      199 on host jwc08n167.juwels reporting.
  Task      200 on host jwc08n167.juwels reporting.
  Task      201 on host jwc08n167.juwels reporting.
  Task      202 on host jwc08n167.juwels reporting.
  Task      203 on host jwc08n167.juwels reporting.
  Task      204 on host jwc08n167.juwels reporting.
  Task      205 on host jwc08n167.juwels reporting.
  Task      206 on host jwc08n167.juwels reporting.
  Task      207 on host jwc08n167.juwels reporting.
  Task      208 on host jwc08n167.juwels reporting.
  Task      209 on host jwc08n167.juwels reporting.
  Task      210 on host jwc08n167.juwels reporting.
  Task      211 on host jwc08n167.juwels reporting.
  Task      212 on host jwc08n167.juwels reporting.
  Task      213 on host jwc08n167.juwels reporting.
  Task      214 on host jwc08n167.juwels reporting.
  Task      215 on host jwc08n167.juwels reporting.
  Task      216 on host jwc08n167.juwels reporting.
  Task      217 on host jwc08n167.juwels reporting.
  Task      218 on host jwc08n167.juwels reporting.
  Task      219 on host jwc08n167.juwels reporting.
  Task      220 on host jwc08n167.juwels reporting.
  Task      221 on host jwc08n167.juwels reporting.
  Task      222 on host jwc08n167.juwels reporting.
  Task      223 on host jwc08n167.juwels reporting.
  Task      224 on host jwc08n167.juwels reporting.
  Task      225 on host jwc08n167.juwels reporting.
  Task      226 on host jwc08n167.juwels reporting.
  Task      227 on host jwc08n167.juwels reporting.
  Task      228 on host jwc08n167.juwels reporting.
  Task      229 on host jwc08n167.juwels reporting.
  Task      230 on host jwc08n167.juwels reporting.
  Task      231 on host jwc08n167.juwels reporting.
  Task      232 on host jwc08n167.juwels reporting.
  Task      233 on host jwc08n167.juwels reporting.
  Task      234 on host jwc08n167.juwels reporting.
  Task      235 on host jwc08n167.juwels reporting.
  Task      236 on host jwc08n167.juwels reporting.
  Task      237 on host jwc08n167.juwels reporting.
  Task      238 on host jwc08n167.juwels reporting.
  Task      239 on host jwc08n167.juwels reporting.
  Task      240 on host jwc08n170.juwels reporting.
  Task      241 on host jwc08n170.juwels reporting.
  Task      242 on host jwc08n170.juwels reporting.
  Task      243 on host jwc08n170.juwels reporting.
  Task      244 on host jwc08n170.juwels reporting.
  Task      245 on host jwc08n170.juwels reporting.
  Task      246 on host jwc08n170.juwels reporting.
  Task      247 on host jwc08n170.juwels reporting.
  Task      248 on host jwc08n170.juwels reporting.
  Task      249 on host jwc08n170.juwels reporting.
  Task      250 on host jwc08n170.juwels reporting.
  Task      251 on host jwc08n170.juwels reporting.
  Task      252 on host jwc08n170.juwels reporting.
  Task      253 on host jwc08n170.juwels reporting.
  Task      254 on host jwc08n170.juwels reporting.
  Task      255 on host jwc08n170.juwels reporting.
  Task      256 on host jwc08n170.juwels reporting.
  Task      257 on host jwc08n170.juwels reporting.
  Task      258 on host jwc08n170.juwels reporting.
  Task      259 on host jwc08n170.juwels reporting.
  Task      260 on host jwc08n170.juwels reporting.
  Task      261 on host jwc08n170.juwels reporting.
  Task      262 on host jwc08n170.juwels reporting.
  Task      263 on host jwc08n170.juwels reporting.
  Task      264 on host jwc08n170.juwels reporting.
  Task      265 on host jwc08n170.juwels reporting.
  Task      266 on host jwc08n170.juwels reporting.
  Task      267 on host jwc08n170.juwels reporting.
  Task      268 on host jwc08n170.juwels reporting.
  Task      269 on host jwc08n170.juwels reporting.
  Task      270 on host jwc08n170.juwels reporting.
  Task      271 on host jwc08n170.juwels reporting.
  Task      272 on host jwc08n170.juwels reporting.
  Task      273 on host jwc08n170.juwels reporting.
  Task      274 on host jwc08n170.juwels reporting.
  Task      275 on host jwc08n170.juwels reporting.
  Task      276 on host jwc08n170.juwels reporting.
  Task      277 on host jwc08n170.juwels reporting.
  Task      278 on host jwc08n170.juwels reporting.
  Task      279 on host jwc08n170.juwels reporting.
  Task      280 on host jwc08n170.juwels reporting.
  Task      281 on host jwc08n170.juwels reporting.
  Task      282 on host jwc08n170.juwels reporting.
  Task      283 on host jwc08n170.juwels reporting.
  Task      284 on host jwc08n170.juwels reporting.
  Task      285 on host jwc08n170.juwels reporting.
  Task      286 on host jwc08n170.juwels reporting.
  Task      287 on host jwc08n170.juwels reporting.

  Performing system and environment tests:
  | Environment variable OMP_NUM_THREADS correctly set to 1.
  | Checking for ScaLAPACK...
  | Testing pdtran()...
  | All pdtran() tests passed.

  Obtaining array dimensions for all initial allocations:
  
  -----------------------------------------------------------------------
  Parsing control.in (first pass over file, find array dimensions only).
  The contents of control.in will be repeated verbatim below
  unless switched off by setting 'verbatim_writeout .false.' .
  in the first line of control.in .
  -----------------------------------------------------------------------
  
  #===============================================================================
  # FHI-aims file: ./control.in
  # Created using the Atomic Simulation Environment (ASE)
  # Fri Jan 17 11:23:11 2020
  #===============================================================================
  xc                                 pbe
  spin                               none
  k_grid                             6 6 1
  relativistic                       atomic_zora scalar
  include_spin_orbit
  use_dipole_correction
  #set_vacuum_level   60
  ### SCF settings
  adjust_scf     once        3
  charge_mix_param  0.05
  # sc_accuracy_eev   1E-3                       # sum of eigenvalues convergence
  # sc_accuracy_etot  1E-6                       # total energy convergence
  # sc_accuracy_rho   1E-3                       # electron density convergence
  ### band structure section
  output band_mulliken 0.000000 0.000000 0.000000    0.000000 0.500000 0.000000  51  G Y
  output band_mulliken 0.000000 0.500000 0.000000    0.095887 0.515165 0.000000  31  Y H
  output band_mulliken 0.095887 0.515165 0.000000    0.500000 0.500000 0.000000  11  H C
  output band_mulliken 0.500000 0.500000 0.000000    0.904113 0.484835 0.000000  11  C H1
  output band_mulliken 0.904113 0.484835 0.000000    0.500000 0.000000 0.000000  51  H1 X
  output band_mulliken 0.500000 0.000000 0.000000    0.000000 0.000000 0.000000  31  X G
  output band_mulliken 0.000000 0.000000 0.000000    0.333333 0.666666 0.000000  31  G Omega
  output species_proj_dos_tetrahedron -10 0 600
  band_mulliken_orbit_num 150
  #===============================================================================
  
  ################################################################################
  #
  #  FHI-aims code project
  # Volker Blum, Fritz Haber Institute Berlin, 2009
  #
  #  Suggested "tight" defaults for H atom (to be pasted into control.in file)
  #
  ################################################################################
    species        H
  #     global species definitions
      nucleus             1
      mass                1.00794
  #
      l_hartree           6
  #
      cut_pot             4.0  2.0  1.0
      basis_dep_cutoff    1e-4
  #
      radial_base         24 7.0
      radial_multiplier   2
      angular_grids       specified
        division   0.1930   50
        division   0.3175  110
        division   0.4293  194
        division   0.5066  302
        division   0.5626  434
  #      division   0.5922  590
  #      division   0.6227  974
  #      division   0.6868 1202
  #      outer_grid  770
        outer_grid  434
  ################################################################################
  #
  #  Definition of "minimal" basis
  #
  ################################################################################
  #     valence basis states
      valence      1  s   1.
  #     ion occupancy
      ion_occ      1  s   0.5
  ################################################################################
  #
  #  Suggested additional basis functions. For production calculations,
  #  uncomment them one after another (the most important basis functions are
  #  listed first).
  #
  #  Basis constructed for dimers: 0.5 A, 0.7 A, 1.0 A, 1.5 A, 2.5 A
  #
  ################################################################################
  #  "First tier" - improvements: -1014.90 meV to -62.69 meV
       hydro 2 s 2.1
       hydro 2 p 3.5
  #  "Second tier" - improvements: -12.89 meV to -1.83 meV
  #     hydro 1 s 0.85
  #     hydro 2 p 3.7
  #     hydro 2 s 1.2
  #     hydro 3 d 7
  #  "Third tier" - improvements: -0.25 meV to -0.12 meV
  #     hydro 4 f 11.2
  #     hydro 3 p 4.8
  #     hydro 4 d 9
  #     hydro 3 s 3.2
  ################################################################################
  #
  # For methods that use the localized form of the "resolution of identity" for
  # the two-electron Coulomb operator (RI_method LVL), particularly Hartree-Fock and
  # hybrid density functional calculations, the highest accuracy can be obtained by
  # uncommenting the line beginning with "for_aux"  below, thus adding an extra g radial
  # function to the construction of the product basis set for the expansion.
  # See Ref. New J. Phys. 17, 093020 (2015) for more information, particularly Figs. 1 and 6.
  #
  ################################################################################
  #
  # for_aux hydro 5 g 6.0
  ################################################################################
  #
  #  FHI-aims code project
  # Volker Blum, Fritz Haber Institute Berlin, 2009
  #
  #  Suggested "tight" defaults for C atom (to be pasted into control.in file)
  #
  ################################################################################
    species        C
  #     global species definitions
      nucleus             6
      mass                12.0107
  #
      l_hartree           6
  #
      cut_pot             4.0  2.0  1.0
      basis_dep_cutoff    1e-4
  #
      radial_base         34 7.0
      radial_multiplier   2
      angular_grids specified
        division   0.2187   50
        division   0.4416  110
        division   0.6335  194
        division   0.7727  302
        division   0.8772  434
  #      division   0.9334  590
  #      division   0.9924  770
  #      division   1.0230  974
  #      division   1.5020 1202
  #     outer_grid  974
        outer_grid  434
  ################################################################################
  #
  #  Definition of "minimal" basis
  #
  ################################################################################
  #     valence basis states
      valence      2  s   2.
      valence      2  p   2.
  #     ion occupancy
      ion_occ      2  s   1.
      ion_occ      2  p   1.
  ################################################################################
  #
  #  Suggested additional basis functions. For production calculations,
  #  uncomment them one after another (the most important basis functions are
  #  listed first).
  #
  #  Constructed for dimers: 1.0 A, 1.25 A, 1.5 A, 2.0 A, 3.0 A
  #
  ################################################################################
  #  "First tier" - improvements: -1214.57 meV to -155.61 meV
       hydro 2 p 1.7
       hydro 3 d 6
       hydro 2 s 4.9
  #  "Second tier" - improvements: -67.75 meV to -5.23 meV
  #     hydro 4 f 9.8
  #     hydro 3 p 5.2
  #     hydro 3 s 4.3
  #     hydro 5 g 14.4
  #     hydro 3 d 6.2
  #  "Third tier" - improvements: -2.43 meV to -0.60 meV
  #     hydro 2 p 5.6
  #     hydro 2 s 1.4
  #     hydro 3 d 4.9
  #     hydro 4 f 11.2
  #  "Fourth tier" - improvements: -0.39 meV to -0.18 meV
  #     hydro 2 p 2.1
  #     hydro 5 g 16.4
  #     hydro 4 d 13.2
  #     hydro 3 s 13.6
  #     hydro 4 f 17.6
  #  Further basis functions - improvements: -0.08 meV and below
  #     hydro 3 s 2
  #     hydro 3 p 6
  #     hydro 4 d 20
  ################################################################################
  #
  # For methods that use the localized form of the "resolution of identity" for
  # the two-electron Coulomb operator (RI_method LVL), particularly Hartree-Fock and
  # hybrid density functional calculations, the highest accuracy can be obtained by
  # uncommenting the line beginning with "for_aux"  below, thus adding an extra g radial
  # function to the construction of the product basis set for the expansion.
  # See Ref. New J. Phys. 17, 093020 (2015) for more information, particularly Figs. 1 and 6.
  #
  ################################################################################
  #
  # for_aux hydro 5 g 6.0
  ################################################################################
  #
  #  FHI-aims code project
  # Volker Blum, Fritz Haber Institute Berlin, 2009
  #
  #  Suggested "tight" defaults for I atom (to be pasted into control.in file)
  #
  ################################################################################
    species          I
  #     global species definitions
      nucleus        53
      mass           126.90447
  #
      l_hartree      6
  #
      cut_pot        4.0  2.0  1.0
      basis_dep_cutoff    1e-4
  #
      radial_base    64  7.0
      radial_multiplier  2
      angular_grids specified
        division   0.1103  110
        division   0.1515  194
        division   0.9554  302
  #      division   1.1196  590
  #      division   1.1922  770
  #      division   6.1948  974
  #      outer_grid  974
        outer_grid  434
  ################################################################################
  #
  #  Definition of "minimal" basis
  #
  ################################################################################
  #     valence basis states
      valence      5  s   2.
      valence      5  p   5.
      valence      4  d  10.
  #     ion occupancy
      ion_occ      5  s   1.
      ion_occ      5  p   4.
      ion_occ      4  d  10.
  ################################################################################
  #
  #  Suggested additional basis functions. For production calculations,
  #  uncomment them one after another (the most important basis functions are
  #  listed first).
  #
  #  Constructed for dimers: 2.22, 2.65, 3.25, 4.25 Ang
  #
  ################################################################################
  #  "First tier" - improvements: -270.74 meV to -21.24 meV
       hydro 3 d 4
       hydro 4 f 6.4
       hydro 2 p 1.6
       ionic 5 s auto
  #  "Second tier" - improvements: -16.39 meV to -0.39 meV
  #     hydro 5 g 9.4
  #     hydro 4 f 18.4
  #     hydro 6 h 12.4
  #     hydro 4 p 4.5
  #     hydro 3 d 4.2
  #     hydro 3 s 3.0
  #  "Third tier" - max. impr. -0.76 meV, min. impr. -0.06 meV
  #     hydro 5 f 15.6
  #     hydro 5 g 12
  #     hydro 5 d 16
  #     hydro 4 f 42
  #     hydro 6 h 15.2
  #     ionic 5 p auto
  #     hydro 1 s 6.2
  #  Further functions that fell out of the optimization: -0.10 meV and below
  #     hydro 4 f 7
  #     hydro 6 p 9
  #     hydro 2 s 6.4
  ################################################################################
  #
  #  FHI-aims code project
  # Volker Blum, Fritz Haber Institute Berlin, 2009
  #
  #  Suggested "tight" defaults for N atom (to be pasted into control.in file)
  #
  ################################################################################
    species        N
  #     global species definitions
      nucleus             7
      mass                14.0067
  #
      l_hartree           6
  #
      cut_pot             4.0  2.0  1.0
      basis_dep_cutoff    1e-4
  #
      radial_base         35 7.0
      radial_multiplier   2
      angular_grids       specified
        division   0.1841   50
        division   0.3514  110
        division   0.5126  194
        division   0.6292  302
        division   0.6939  434
  #      division   0.7396  590
  #      division   0.7632  770
  #      division   0.8122  974
  #      division   1.1604 1202
  #      outer_grid  974
        outer_grid  434
  ################################################################################
  #
  #  Definition of "minimal" basis
  #
  ################################################################################
  #     valence basis states
      valence      2  s   2.
      valence      2  p   3.
  #     ion occupancy
      ion_occ      2  s   1.
      ion_occ      2  p   2.
  ################################################################################
  #
  #  Suggested additional basis functions. For production calculations,
  #  uncomment them one after another (the most important basis functions are
  #  listed first).
  #
  #  Constructed for dimers: 1.0 A, 1.1 A, 1.5 A, 2.0 A, 3.0 A
  #
  ################################################################################
  #  "First tier" - improvements: -1193.42 meV to -220.60 meV
       hydro 2 p 1.8
       hydro 3 d 6.8
       hydro 3 s 5.8
  #  "Second tier" - improvements: -80.21 meV to -6.86 meV
  #     hydro 4 f 10.8
  #     hydro 3 p 5.8
  #     hydro 1 s 0.8
  #     hydro 5 g 16
  #     hydro 3 d 4.9
  #  "Third tier" - improvements: -4.29 meV to -0.53 meV
  #     hydro 3 s 16
  #     ionic 2 p auto
  #     hydro 3 d 6.6
  #     hydro 4 f 11.6
  #  "Fourth tier" - improvements: -0.75 meV to -0.25 meV
  #     hydro 2 p 4.5
  #     hydro 2 s 2.4
  #     hydro 5 g 14.4
  #     hydro 4 d 14.4
  #     hydro 4 f 16.8
  # Further basis functions - -0.21 meV and below
  #     hydro 3 p 14.8
  #     hydro 3 s 4.4
  #     hydro 3 d 19.6
  #     hydro 5 g 12.8
  ################################################################################
  #
  # For methods that use the localized form of the "resolution of identity" for
  # the two-electron Coulomb operator (RI_method LVL), particularly Hartree-Fock and
  # hybrid density functional calculations, the highest accuracy can be obtained by
  # uncommenting the line beginning with "for_aux"  below, thus adding an extra g radial
  # function to the construction of the product basis set for the expansion.
  # See Ref. New J. Phys. 17, 093020 (2015) for more information, particularly Figs. 1 and 6.
  #
  ################################################################################
  #
  # for_aux hydro 5 g 6.0
  ################################################################################
  #
  #  FHI-aims code project
  # Volker Blum, Fritz Haber Institute Berlin, 2009
  #
  #  Suggested "tight" defaults for Pb atom (to be pasted into control.in file)
  #
  ################################################################################
    species        Pb
  #     global species definitions
      nucleus             82
      mass                207.2
  #
      l_hartree           6
  #
      cut_pot             4.0  2.0  1.0
      basis_dep_cutoff    1e-4
  #
      radial_base         74 7.0
      radial_multiplier   2
      angular_grids specified
        division   0.1064  110
        division   0.1579  194
        division   0.2150  302
        division   1.0164  434
  #      division   1.1544  590
  #      division   1.1970  770
  #      division   7.7779  974
  #      outer_grid  974
        outer_grid  434
   ################################################################################
  #
  #  Definition of "minimal" basis
  #
  ################################################################################
  #     valence basis states
      valence      6  s   2.
      valence      6  p   2.
      valence      5  d  10.
      valence      4  f  14.
  #     ion occupancy
      ion_occ     6  s    1.
      ion_occ     6  p    1.
      ion_occ     5  d   10.
      ion_occ     4  f   14.
  ################################################################################
  #
  #  Suggested additional basis functions. For production calculations,
  #  uncomment them one after another (the most important basis functions are
  #  listed first).
  #
  #  Constructed for dimers: 2.225, 2.50, 2.88, 3.625, 4.50
  #
  ################################################################################
  #  "First tier" - max. impr. -156.54 meV, min. impr. -14.49 meV
       hydro 3 p 2.3
       hydro 4 f 7.6
       hydro 3 d 3.5
       hydro 5 g 9.8
       hydro 3 s 3.2
  #  "Second tier" - max. impr. -4.38  meV, min. impr. -0.30 meV
  #     hydro 6 h 12.8
  #     hydro 3 d 2.4
  #     hydro 5 f 7.2
  #     hydro 5 f 14.8
  #     hydro 4 p 5.4
  #     ionic 6 s auto
  #  "Third tier" - max. impr. -0.86 meV, min. impr. -0.16 meV
  #     hydro 5 p 14.4
  #     hydro 5 g 8.2
  #     hydro 4 d 4.6
  #     hydro 6 h 12.4
  #     hydro 6 d 12.4
  #     hydro 4 s 4
  #     hydro 5 g 32.8
  #     hydro 5 f 9.4
  #  Further functions: -0.10 meV and below
  #     hydro 5 f 17.6
  #     hydro 7 p 19.6
  ################################################################################
  #
  #  FHI-aims code project
  # Volker Blum, Fritz Haber Institute Berlin, 2009
  #
  #  Suggested "tight" defaults for S atom (to be pasted into control.in file)
  #
  #  Revised Jan 04, 2011, following tests (SiC) done by Lydia Nemec:
  #     d and g functions of tier 2 now enabled by default.
  #
  ################################################################################
    species        S
  #     global species definitions
      nucleus             16
      mass                32.065
  #
      l_hartree           6
  #
      cut_pot             4.0          2.0  1.0
      basis_dep_cutoff    1e-4
  #
      radial_base         44 7.0
      radial_multiplier   2
      angular_grids       specified
        division   0.4665  110
        division   0.5810  194
        division   0.7139  302
        division   0.8274  434
  #      division   0.9105  590
  #      division   1.0975  770
  #      division   1.2028  974
  #      outer_grid  974
        outer_grid  434
  ################################################################################
  #
  #  Definition of "minimal" basis
  #
  ################################################################################
  #     valence basis states
      valence      3  s   2.
      valence      3  p   4.
  #     ion occupancy
      ion_occ      3  s   1.
      ion_occ      3  p   3.
  ################################################################################
  #
  #  Suggested additional basis functions. For production calculations,
  #  uncomment them one after another (the most important basis functions are
  #  listed first).
  #
  #  Constructed for dimers: 1.6 A, 1.9 A, 2.5 A, 3.25 A, 4.0 A
  #
  ################################################################################
  #  "First tier" - improvements: -652.81 meV to -45.53 meV
       ionic 3 d auto
       hydro 2 p 1.8
       hydro 4 f 7
       ionic 3 s auto
  #  "Second tier" - improvements: -30.20 meV to -1.74 meV
  #     hydro 4 d 6.2
  #     hydro 5 g 10.8
  #     hydro 4 p 4.9
  #     hydro 5 f 10
  #     hydro 1 s 0.8
  #  "Third tier" - improvements: -1.04 meV to -0.20 meV
  #     hydro 3 d 3.9
  #     hydro 3 d 2.7
  #     hydro 5 g 12
  #     hydro 4 p 10.4
  #     hydro 5 f 12.4
  #     hydro 2 s 1.9
  #  "Fourth tier" - improvements: -0.35 meV to -0.06 meV
  #     hydro 4 d 10.4
  #     hydro 4 p 7.2
  #     hydro 4 d 10
  #     hydro 5 g 19.2
  #     hydro 4 s 12
  #
  ################################################################################
  #
  # For methods that use the localized form of the "resolution of identity" for
  # the two-electron Coulomb operator (RI_method LVL), particularly Hartree-Fock and
  # hybrid density functional calculations, the highest accuracy can be obtained by
  # uncommenting the line beginning with "for_aux"  below, thus adding an extra g radial
  # function to the construction of the product basis set for the expansion.
  # See Ref. New J. Phys. 17, 093020 (2015) for more information, particularly Figs. 1 and 6.
  #
  ################################################################################
  #
  # for_aux hydro 5 g 6.0
  ################################################################################
  #
  #  FHI-aims code project
  # Volker Blum, Fritz Haber Institute Berlin, 2009
  #
  #  Suggested "tight" defaults for W atom (to be pasted into control.in file)
  #
  ################################################################################
    species          W
  #     global species definitions
      nucleus        74
      mass           183.84
  #
      l_hartree      6
  #
      cut_pot        4.0  2.0  1.0
      basis_dep_cutoff    1e-4
  #
      radial_base    71  7.0
      radial_multiplier  2
      angular_grids specified
        division   0.2901   50
        division   0.6986  110
        division   1.0528  194
        division   1.2659  302
        division   1.5223  434
  #      division   1.8111  590
  #      division   2.0105  770
  #      division   2.0413  974
  #      division   2.8804 1202
  #      outer_grid  974
        outer_grid  434
  ################################################################################
  #
  #  Definition of "minimal" basis
  #
  ################################################################################
  #     valence basis states
      valence      6  s   2.
      valence      5  p   6.
      valence      5  d   4.
      valence      4  f  14.
  #     ion occupancy
      ion_occ      6  s   1.
      ion_occ      5  p   6.
      ion_occ      5  d   3.
      ion_occ      4  f  14.
  ################################################################################
  #
  #  Suggested additional basis functions. For production calculations,
  #  uncomment them one after another (the most important basis functions are
  #  listed first).
  #
  #  Constructed for dimers: 1.775, 1.99, 2.50, 3.25, 4.50 AA
  #
  ################################################################################
  #
  #  "First tier" - improvements: -603.77 meV to -28.99 meV
       hydro 4 f 7.8
       hydro 4 d 5.8
       ionic 6 p auto
       hydro 5 g 12.4
       ionic 6 s auto
  #  "Second tier" - improvements: -28.30 meV to -1.31 meV
  #     hydro 6 h 16.8
  #     ionic 5 d auto
  #     hydro 4 f 8.6
  #     hydro 5 g 16.8
  #     hydro 5 d 8.4
  #     hydro 3 p 3.3
  #     hydro 1 s 0.55
  #  "Third tier" - max. impr. -1.79 meV, min. impr. -0.26 meV
  #     hydro 5 f 10.8
  #     hydro 5 g 34.4
  #     hydro 6 h 20.8
  #     hydro 5 g 12.8
  #     hydro 2 p 1.6
  #     hydro 4 s 4.7
  #     hydro 6 d 18.4
  #  "Fourth tier" -0.46 max. impr. - meV, min. impr. -0.09 meV
  #     hydro 6 h 21.6
  #     hydro 5 f 22.4
  #     hydro 4 f 4
  #     hydro 5 p 9.6
  #     hydro 6 d 17.2
  #     hydro 3 p 5.2
  #     hydro 5 g 4.7
  #     hydro 6 s 7.6
  
  -----------------------------------------------------------------------
  Completed first pass over input file control.in .
  -----------------------------------------------------------------------
  
  
  -----------------------------------------------------------------------
  Parsing geometry.in (first pass over file, find array dimensions only).
  The contents of geometry.in will be repeated verbatim below
  unless switched off by setting 'verbatim_writeout .false.' .
  in the first line of geometry.in .
  -----------------------------------------------------------------------
  
  #=======================================================
  # FHI-aims file: geometry.in
  # Created using the Atomic Simulation Environment (ASE)
  # Mon Jan 20 10:04:09 2020
  #=======================================================
  lattice_vector 19.1113999999999997 0.0000000000000000 0.0000000000000000
  lattice_vector 3.0226559137150564 7.7569114812651687 0.0000000000000000
  lattice_vector 0.0000000000000000 0.0000000000000000 152.7210000000000036
  atom 9.0178996195376939 0.3148530370245532 22.3736265000000003 H
  atom 20.0849275763952200 4.1933087776571378 22.3736265000000003 H
  atom 14.6113049903733714 2.3038027099357552 22.4118067500000002 H
  atom 6.5669329472309004 6.1822584505683400 22.4118067500000002 H
  atom 8.2027990498041561 0.7008369523323080 22.9860377100000015 C
  atom 19.2698270066616821 4.5792926929648923 22.9860377100000015 C
  atom 13.7727707510923381 2.6634906953220212 23.0074186500000017 C
  atom 5.7283987079498671 6.5419464359546051 23.0074186500000017 C
  atom 12.8079977016953190 0.7393888023941959 23.0944696199999981 H
  atom 4.7636256585528471 4.6178445430267798 23.0944696199999981 H
  atom 8.9322172614127222 2.7281833370757727 22.9585479299999982 H
  atom 19.9992452182702500 6.6066390777083566 22.9585479299999982 H
  atom 3.4359537631553034 0.8095112821848329 23.0914152000000001 H
  atom 14.5029817200128299 4.6879670228174177 23.0914152000000001 H
  atom 18.3159717776730488 2.6616290365665174 23.1906838500000028 H
  atom 10.2715997345305752 6.5400847771991018 23.1906838500000028 H
  atom 12.7590626948425374 1.7869596979390570 23.3922755699999989 C
  atom 4.7146906517000655 5.6654154385716406 23.3922755699999989 C
  atom 8.1516402397796668 2.0551161278463939 23.3128606500000011 C
  atom 19.2186681966371964 5.9335718684789782 23.3128606500000011 C
  atom 18.2727866838306845 3.7190512096925850 23.4518367600000026 C
  atom 10.2284146406882126 7.5975069503251698 23.4518367600000026 C
  atom 2.6437920115656355 0.1253516895372451 23.3938027800000015 C
  atom 13.7108199684231629 4.0038074301698288 23.3938027800000015 C
  atom 11.6910855092570571 2.2459361502855173 24.1650438300000019 C
  atom 3.6467134661145857 6.1243918909181012 24.1650438300000019 C
  atom 7.1090205062576759 2.5443445349697882 24.1024282200000002 C
  atom 18.1760484631152046 6.4228002756023725 24.1024282200000002 C
  atom 6.1656429847415186 0.3288930468056431 24.2414043300000017 C
  atom 1.5796156714425893 0.5823113448985762 24.1711526699999979 C
  atom 17.2326709415990464 4.2073487874382272 24.2414043300000017 C
  atom 12.6466436283001151 4.4607670855311605 24.1711526699999979 C
  atom 7.0706132624153124 3.6017667080958558 24.3681627600000006 H
  atom 18.1376412192728402 7.4802224487284406 24.3681627600000006 H
  atom 10.9016276549793147 1.5589065003898610 24.4735402500000028 H
  atom 2.8572556118368428 5.4373622410224449 24.4735402500000028 H
  atom 16.4617676383317217 3.5301704151237785 24.6125163600000008 H
  atom 8.4173955951892516 7.4086261557563624 24.6125163600000008 H
  atom 1.5314129687834588 1.6268570449657438 24.4857579300000019 H
  atom 12.5984409256409862 5.5053127855983277 24.4857579300000019 H
  atom 11.6231399848244301 3.5865631615925762 24.5636456400000007 C
  atom 3.5787679416819587 7.4650189022251601 24.5636456400000007 C
  atom 6.1035954898350591 1.6905412882269308 24.5728088999999983 C
  atom 17.1704323326925881 5.5689970288595152 24.5728088999999983 C
  atom 4.0193065901728486 1.8759314726291685 25.1149684500000028 H
  atom 15.0863345470303774 5.7543872132617535 25.1149684500000028 H
  atom 18.1555813163047155 1.1592704208750795 25.0890058800000020 H
  atom 10.1112092731622436 5.0377261615076634 25.0890058800000020 H
  atom 9.6587132567675571 3.3615351595210736 25.4127744000000000 H
  atom 20.7257412136250849 7.2399909001536580 25.4127744000000000 H
  atom 4.9835892780375648 3.3264739196257551 25.4066655600000004 H
  atom 16.0506172348950926 7.2049296602583395 25.4066655600000004 H
  atom 18.5410810402515054 0.1931470958835027 25.4433186000000013 C
  atom 10.4967089971090335 4.0716028365160870 25.4433186000000013 C
  atom 5.0024964123329241 2.2283279612230453 25.4555362800000005 C
  atom 16.0695243691904501 6.1067837018556297 25.4555362800000005 C
  atom 5.1319817322400123 1.7979745122424535 26.9124946200000004 C
  atom 14.9000594426675157 1.8746127976773532 26.9124946200000004 I
  atom 16.1992310296566764 5.6765078219898504 26.9124946200000004 C
  atom 6.8555664932884968 5.7527582618506869 26.9124946200000004 I
  atom 9.4035878228736394 0.2379044751304027 26.9231850900000005 I
  atom 18.9644289043301946 0.4090219424071123 26.8926408899999991 C
  atom 20.4708371202903052 4.1164377848778004 26.9231850900000005 I
  atom 10.9200266346285861 4.2874001139248836 26.8926408899999991 C
  atom 5.1019684956534013 0.7071976197469454 27.0224537399999996 H
  atom 16.1692177930700680 4.5857309294943427 27.0224537399999996 H
  atom 0.6230508880242891 1.1844803831891912 26.9827462800000006 H
  atom 11.6900788448818158 5.0629361238217756 26.9827462800000006 H
  atom 12.3976734330457656 2.7683641385487259 27.0682700400000016 H
  atom 4.3533013899032946 6.6468198791813107 27.0682700400000016 H
  atom 7.2446020304133167 1.7608189062471933 27.0896509800000018 H
  atom 18.3114993263891215 5.6394297851094031 27.0896509800000018 H
  atom 10.8294296862039872 2.2255354730897894 27.3782936700000015 H
  atom 6.5611332452860021 3.2933519076007527 27.3538583099999997 H
  atom 2.7850576430615148 6.1039912137223737 27.3782936700000015 H
  atom 17.6282216552618038 7.1719627864629629 27.3538583099999997 H
  atom 4.3304108526984102 2.2314307258155508 27.5233786199999990 H
  atom 15.3974690361150746 6.1099640355629488 27.5233786199999990 H
  atom 18.1059540564493311 0.7003715376434321 27.5111609399999999 H
  atom 10.0615820133068610 4.5788272782760160 27.5111609399999999 H
  atom 11.4833983671011701 3.0366757066856884 27.4897799999999997 N
  atom 3.4390263239586987 6.9151314473182728 27.4897799999999997 N
  atom 6.4273358010413455 2.2653284289886799 27.4943616300000002 N
  atom 17.4944242110171473 6.1439393078508893 27.4943616300000002 N
  atom 11.6607694216767346 3.1863065291592934 28.4992658100000007 H
  atom 3.6164276050933992 7.0648398389066909 28.4992658100000007 H
  atom 6.4496919042091321 2.0740429918606811 28.5130107000000024 H
  atom 17.5169109750666614 5.9524987324932646 28.5130107000000024 H
  atom 15.0707768037384842 2.0012831621664136 30.1608702900000019 Pb
  atom 7.0228223678218979 5.8774118293546183 30.1608702900000019 Pb
  atom 12.6343564523833827 0.1093724518858389 30.1028363100000007 I
  atom 2.0710913128351645 0.7376047127535048 30.1700335500000030 I
  atom 8.9526405305560086 3.2582906677054337 30.1501798200000017 I
  atom 17.4993965207707518 3.9006405074690025 30.2219586900000010 I
  atom 4.5905255994345620 3.9848029970407297 30.1028363100000007 I
  atom 13.1387530648109685 4.6162155916157150 30.1700335500000030 I
  atom 20.0204036794780045 7.1381426524046461 30.1501798200000017 I
  atom 6.4301132518703268 0.0188492948994744 30.2204314800000020 I
  atom 9.5314972535033711 0.0590300963724279 30.1608702900000019 Pb
  atom 20.6020257154791757 3.9376409752346380 30.1608702900000019 Pb
  atom 4.5636943697409347 1.9291438853906475 31.8072026700000023 H
  atom 15.6307827797167356 5.8077547642528575 31.8072026700000023 H
  atom 18.4672453183593746 0.8163373642883464 31.8194203500000015 H
  atom 10.4228732752169009 4.6947931049209304 31.8194203500000015 H
  atom 4.5839277469947612 1.7373154644589599 32.8243245300000055 N
  atom 15.6511770444114244 5.6158487742063565 32.8243245300000055 N
  atom 18.6417203989994036 0.9673644308285791 32.8304333700000015 N
  atom 10.5973181292977952 4.8457426023463510 32.8304333700000015 N
  atom 12.0170312664685000 3.3021172175745823 32.8136340599999983 H
  atom 3.9726894498851650 7.1806505273219798 32.8136340599999983 H
  atom 6.6804314487569876 1.7730748263875924 32.8014163799999992 H
  atom 17.7476807461736534 5.6516081361349890 32.8014163799999992 H
  atom 4.4515383085135563 0.7089817093876364 32.9648278499999989 H
  atom 19.2959201751009033 1.7781168188504146 32.9434469100000058 H
  atom 15.5185964919302233 4.5875150191350338 32.9648278499999989 H
  atom 11.2515179053992931 5.6564949903681860 32.9434469100000058 H
  atom 3.7650614352357312 2.2406614504782567 33.2275079700000049 H
  atom 14.8322502795341205 6.1190396219960288 33.2275079700000049 H
  atom 17.7259875914418643 1.2368395356877313 33.2488889099999980 H
  atom 9.6816155482993942 5.1152952763203157 33.2488889099999980 H
  atom 10.3870874105493822 2.8201803072435774 33.3374670900000041 H
  atom 21.4541455939660466 6.6987136169909745 33.3374670900000041 H
  atom 5.9068417595654470 3.2969976559969472 33.2977596300000016 H
  atom 16.9740608304229745 7.1754533966295311 33.2977596300000016 H
  atom 11.1573102628886538 3.5951733333367804 33.4290996900000010 C
  atom 1.6125930280657623 3.7626450522172954 33.4000826999999987 I
  atom 3.1129684463053193 7.4737066430841770 33.4290996900000010 C
  atom 12.6792689834824284 7.6411783619646920 33.4000826999999987 I
  atom 15.2295134733041202 2.1266348517036588 33.4092459599999998 I
  atom 7.1848596364842363 6.0048578849918046 33.4092459599999998 I
  atom 5.8772712040971111 2.2063759017310649 33.4107731699999988 C
  atom 16.9444902749546387 6.0848316423636488 33.4092459599999998 C
  atom 6.0052783104772969 1.7766430056689742 34.8677315100000058 C
  atom 17.0725978156574136 5.6548660389571213 34.8662042999999997 C
  atom 11.5784456839995791 3.8117463018937041 34.8799491900000049 C
  atom 3.5340736408571067 7.6902020425262876 34.8799491900000049 C
  atom 6.0243463322135185 0.6784194781514516 34.9166022300000023 H
  atom 17.0918569513936376 4.5566425114395983 34.9150750199999962 H
  atom 1.3495743549243897 0.6432806691413204 34.9104933899999992 H
  atom 12.4166023117819186 4.5217364097739043 34.9104933899999992 H
  atom 11.9645187499463681 2.8456229769021273 35.2342619100000007 H
  atom 3.9201467068038967 6.7240787175347112 35.2342619100000007 H
  atom 6.9889907761642736 2.1284189413443499 35.2067721300000045 H
  atom 18.0561191673443915 6.0066419746324966 35.2067721300000045 H
  atom 4.9059489948246524 2.3135764184021492 35.7535133100000024 C
  atom 15.9731778203273578 6.1915667443458577 35.7535133100000024 C
  atom 18.4975529327170030 0.4173994068068787 35.7626765699999964 C
  atom 10.4531808895745346 4.2958551474394628 35.7626765699999964 C
  atom 9.4782924033171145 2.3771830925485236 35.8405642800000024 H
  atom 20.5448074712929198 6.2557939714107329 35.8405642800000024 H
  atom 13.6570443657688525 0.4738697223904891 35.7122786400000010 H
  atom 5.6127932288629294 4.3526357394823245 35.7138058500000000 H
  atom 19.2195879060890249 2.4444355150910928 35.8543091700000005 H
  atom 11.1747634271831018 6.3232015321829271 35.8527819600000015 H
  atom 3.9389916753626739 0.4025061367628496 35.9581594499999966 H
  atom 15.0065422757471048 4.2803413244769333 35.9566322400000047 H
  atom 9.4316683485074773 3.4208755323527522 36.1597511699999998 C
  atom 4.8450072400902737 3.6741386922160602 36.0894995100000031 C
  atom 20.4985051913650018 7.2993312729853361 36.1597511699999998 C
  atom 15.9120751781521168 7.5522065872745809 36.0879723000000041 C
  atom 3.9021933059289391 1.4591526187407908 36.2284756199999975 C
  atom 14.9699350203133701 5.3369878064548741 36.2269484099999985 C
  atom 18.4314776044564574 1.7569404505065607 36.1658600100000029 C
  atom 10.3866531255505379 5.6357064675983954 36.1643328000000039 C
  atom 19.4392861353495690 7.7538087166726628 36.9432098999999994 C
  atom 11.8547639405495815 0.2814207485403003 36.8867031300000008 C
  atom 8.3721577441694528 3.8755856833845166 36.9432098999999994 C
  atom 3.8100301413210707 4.1604194729765736 36.8882303399999998 C
  atom 2.8650037641919703 1.9461315215346182 37.0256792400000023 C
  atom 13.9328761394581253 5.8238115710190757 37.0256792400000023 C
  atom 17.3683270420968654 2.2135898294086411 36.9477915300000035 C
  atom 9.3231807883092159 6.0925109847301009 36.9462643199999974 C
  atom 11.8116402624490995 1.3404718730774337 37.1417471999999975 H
  atom 3.7671278037797244 5.2195481666285195 37.1432744100000036 H
  atom 7.5815141873110026 3.1904176922443637 37.2486518999999987 H
  atom 18.6484816910502573 7.0687182946473230 37.2486518999999987 H
  atom 2.0860053904084066 1.2722110520423002 37.3815191699999971 H
  atom 13.1538173125562885 5.1497359632971325 37.3815191699999971 H
  atom 17.3211920236527135 3.2603850338053761 37.2471246899999997 H
  atom 9.2759755621016122 7.1396164655860863 37.2455974800000007 H
  atom 16.3573842989008682 1.3358177261886748 37.3372300800000048 C
  atom 8.3124291591132220 5.2147388815101356 37.3357028699999987 C
  atom 2.8159364908986992 3.2994022985561395 37.3570838099999989 C
  atom 13.8835875256057193 7.1770047789257845 37.3570838099999989 C
  atom 15.5232242470822701 1.6934889145898115 37.9404780300000013 H
  atom 7.4779473324128967 5.5725652081408974 37.9389508200000023 H
  atom 2.0040136887781030 3.6842226771417046 37.9756038599999997 H
  atom 13.0721269138937508 7.5610494663632233 37.9756038599999997 H
  atom 17.1901495684265235 0.1054939961452063 41.3079760800000031 S
  atom 11.7464145589486559 0.5619882368176615 41.3079760800000031 S
  atom 6.3036244022020034 1.0174740789975523 41.3095032900000021 S
  atom 0.8609356424015465 1.4742010270144452 41.3079760800000031 S
  atom 14.5285704063645422 1.9306176985720878 41.3079760800000031 S
  atom 9.0857909668866714 2.3871119392445430 41.3095032900000021 S
  atom 3.6427697149357052 2.8429856269984972 41.3079760800000031 S
  atom 17.3101529117804240 3.2992471603265141 41.3079760800000031 S
  atom 11.8671823583025571 3.7557414009989696 41.3095032900000021 S
  atom 6.4243122391472758 4.2120029343269865 41.3095032900000021 S
  atom 20.0929123277554460 4.6679541911957534 41.3079760800000031 S
  atom 14.6490066761915365 5.1249914156718965 41.3079760800000031 S
  atom 9.2058849899179833 5.5810978107702889 41.3095032900000021 S
  atom 3.7628432660530566 6.0364285147205541 41.3079760800000031 S
  atom 17.4309109564891465 6.4934657391966981 41.3079760800000031 S
  atom 11.9875279484521418 6.9498824107543404 41.3095032900000021 S
  atom 6.5452711525011757 7.4057560985082942 41.3095032900000021 S
  atom 15.3730352813026148 0.2712591944998430 42.8810023799999982 W
  atom 9.9293109890935281 0.7287618336648627 42.8810023799999982 W
  atom 4.4865822480887569 1.1858766272558190 42.8810023799999982 W
  atom 18.1558356411055577 1.6410521929764590 42.8810023799999982 W
  atom 12.7120197065954521 2.0968483116156005 42.8810023799999982 W
  atom 7.2685157923218986 2.5529547067139924 42.8810023799999982 W
  atom 1.8253638794892075 3.0089835326975716 42.8810023799999982 W
  atom 15.4931205123123554 3.4671842938959050 42.8810023799999982 W
  atom 10.0505624133936244 3.9237561036831727 42.8810023799999982 W
  atom 4.6079828799373264 4.3783111164853121 42.8810023799999982 W
  atom 18.2753056236637725 4.8344175115837036 42.8810023799999982 W
  atom 12.8321839373902176 5.2905239066820959 42.8810023799999982 W
  atom 7.3886702684714853 5.7470957164693637 42.8825295899999972 W
  atom 21.0569397901763615 6.2051413394380717 42.8810023799999982 W
  atom 15.6146829942253937 6.6610150271920263 42.8810023799999982 W
  atom 10.1713594766830564 7.1161130237978538 42.8825295899999972 W
  atom 4.7276342218503640 7.5721418497814330 42.8810023799999982 W
  atom 17.1902100215447966 0.1056491343748316 44.4540286800000004 S
  atom 11.7469674290346955 0.5614452530139729 44.4540286800000004 S
  atom 6.3034537601159641 1.0180170628012406 44.4540286800000004 S
  atom 0.8603320738424093 1.4741234578996325 44.4525014700000014 S
  atom 14.5292441826871279 1.9303849912276498 44.4525014700000014 S
  atom 9.0857607403275331 2.3870343701297303 44.4540286800000004 S
  atom 3.6420657120539794 2.8431407652281226 44.4540286800000004 S
  atom 17.3105049132212869 3.2991695912117014 44.4525014700000014 S
  atom 11.8673734723025568 3.7557414009989696 44.4540286800000004 S
  atom 6.4240606720290012 4.2118477960973610 44.4540286800000004 S
  atom 20.0924296654328600 4.6681868985401911 44.4525014700000014 S
  atom 14.6495195650732626 5.1248362774422720 44.4540286800000004 S
  atom 9.2057338571222971 5.5807099651962258 44.4540286800000004 S
  atom 3.7623508490852915 6.0371266367538681 44.4540286800000004 S
  atom 17.4310718439300132 6.4933881700818858 44.4525014700000014 S
  atom 11.9881714982155945 6.9495721342950905 44.4540286800000004 S
  atom 6.5444062621785877 7.4059888058527328 44.4540286800000004 S
  
  -----------------------------------------------------------------------
  Completed first pass over input file geometry.in .
  -----------------------------------------------------------------------
  

  Basic array size parameters:
  | Number of species                 :        7
  | Number of atoms                   :      239
  | Number of lattice vectors         :        3
  | Max. basis fn. angular momentum   :        4
  | Max. atomic/ionic basis occupied n:        6
  | Max. number of basis fn. types    :        3
  | Max. radial fns per species/type  :       15
  | Max. logarithmic grid size        :     1491
  | Max. radial integration grid size :      149
  | Max. angular integration grid size:      434
  | Max. angular grid division number :        8
  | Radial grid for Hartree potential :     1491
  | Number of spin channels           :        1

------------------------------------------------------------
          Reading file control.in.
------------------------------------------------------------
  XC: Using PBE gradient-corrected functionals.
  Spin treatment: No spin polarisation.
  Found k-point grid:         6         6         1
  Scalar relativistic treatment of kinetic energy: on-site free-atom approximation to ZORA.
  Calculating non-self-consistent second-variational spin-orbit coupling after scf-cycle
  Using dipole correction.
  S.C.F. convergence parameters will be adjusted in iteration number     3 of the first full s.c.f. cycle only.
  Charge density mixing - mixing parameter:     0.0500
  Mulliken analysis of all k points in band will be performed

  Plot band    1
  | begin  0.000000  0.000000  0.000000
  | end    0.000000  0.500000  0.000000
  | number of points:   51
  Mulliken analysis of all k points in band will be performed

  Plot band    2
  | begin  0.000000  0.500000  0.000000
  | end    0.095887  0.515165  0.000000
  | number of points:   31
  Mulliken analysis of all k points in band will be performed

  Plot band    3
  | begin  0.095887  0.515165  0.000000
  | end    0.500000  0.500000  0.000000
  | number of points:   11
  Mulliken analysis of all k points in band will be performed

  Plot band    4
  | begin  0.500000  0.500000  0.000000
  | end    0.904113  0.484835  0.000000
  | number of points:   11
  Mulliken analysis of all k points in band will be performed

  Plot band    5
  | begin  0.904113  0.484835  0.000000
  | end    0.500000  0.000000  0.000000
  | number of points:   51
  Mulliken analysis of all k points in band will be performed

  Plot band    6
  | begin  0.500000  0.000000  0.000000
  | end    0.000000  0.000000  0.000000
  | number of points:   31
  Mulliken analysis of all k points in band will be performed

  Plot band    7
  | begin  0.000000  0.000000  0.000000
  | end    0.333333  0.666666  0.000000
  | number of points:   31
  Calculating angular-momentum projected DOS with 
  | energy interval :-10.000000  0.000000
  | points & tetrahedron :   600
 
  Reading configuration options for species H                   .
  | Found nuclear charge :   1.0000
  | Found atomic mass :    1.00794000000000      amu
  | Found l_max for Hartree potential  :   6
  | Found cutoff potl. onset [A], width [A], scale factor :    4.00000    2.00000    1.00000
  | Threshold for basis-dependent cutoff potential is   0.100000E-03
  | Found data for basic radial integration grid :    24 points, outermost radius =    7.000 A
  | Found multiplier for basic radial grid :   2
  | Found angular grid specification: user-specified.
  | Specified grid contains     6 separate shells.
  | Check grid settings after all constraints further below.
  | Found free-atom valence shell :  1 s   1.000
  | Found free-ion valence shell :  1 s   0.500
  | Found hydrogenic basis function :  2 s   2.100
  | Found hydrogenic basis function :  2 p   3.500
  Species H                   : Missing cutoff potential type.
  Defaulting to exp(1/x)/(1-x)^2 type cutoff potential.
  Species H : No 'logarithmic' tag. Using default grid for free atom:
  | Default logarithmic grid data [bohr] : 0.1000E-03 0.1000E+03 0.1012E+01
  Species H : On-site basis accuracy parameter (for Gram-Schmidt orthonormalisation) not specified.
  Using default value basis_acc =  0.1000000E-03.
  Species H                   : Using default innermost maximum threshold i_radial=  2 for radial functions.
  Species H                   : Default cutoff onset for free atom density etc. : 0.40000000E+01 AA.
  Species H                   : Basic radial grid will be enhanced according to radial_multiplier =   2, to contain    49 grid points.
 
  Reading configuration options for species C                   .
  | Found nuclear charge :   6.0000
  | Found atomic mass :    12.0107000000000      amu
  | Found l_max for Hartree potential  :   6
  | Found cutoff potl. onset [A], width [A], scale factor :    4.00000    2.00000    1.00000
  | Threshold for basis-dependent cutoff potential is   0.100000E-03
  | Found data for basic radial integration grid :    34 points, outermost radius =    7.000 A
  | Found multiplier for basic radial grid :   2
  | Found angular grid specification: user-specified.
  | Specified grid contains     6 separate shells.
  | Check grid settings after all constraints further below.
  | Found free-atom valence shell :  2 s   2.000
  | Found free-atom valence shell :  2 p   2.000
  | Found free-ion valence shell :  2 s   1.000
  | Found free-ion valence shell :  2 p   1.000
  | Found hydrogenic basis function :  2 p   1.700
  | Found hydrogenic basis function :  3 d   6.000
  | Found hydrogenic basis function :  2 s   4.900
  Species C                   : Missing cutoff potential type.
  Defaulting to exp(1/x)/(1-x)^2 type cutoff potential.
  Species C : No 'logarithmic' tag. Using default grid for free atom:
  | Default logarithmic grid data [bohr] : 0.1000E-03 0.1000E+03 0.1012E+01
  Species C : On-site basis accuracy parameter (for Gram-Schmidt orthonormalisation) not specified.
  Using default value basis_acc =  0.1000000E-03.
  Species C                   : Using default innermost maximum threshold i_radial=  2 for radial functions.
  Species C                   : Default cutoff onset for free atom density etc. : 0.40000000E+01 AA.
  Species C                   : Basic radial grid will be enhanced according to radial_multiplier =   2, to contain    69 grid points.
 
  Reading configuration options for species I                   .
  | Found nuclear charge :  53.0000
  | Found atomic mass :    126.904470000000      amu
  | Found l_max for Hartree potential  :   6
  | Found cutoff potl. onset [A], width [A], scale factor :    4.00000    2.00000    1.00000
  | Threshold for basis-dependent cutoff potential is   0.100000E-03
  | Found data for basic radial integration grid :    64 points, outermost radius =    7.000 A
  | Found multiplier for basic radial grid :   2
  | Found angular grid specification: user-specified.
  | Specified grid contains     4 separate shells.
  | Check grid settings after all constraints further below.
  | Found free-atom valence shell :  5 s   2.000
  | Found free-atom valence shell :  5 p   5.000
  | Found free-atom valence shell :  4 d  10.000
  | Found free-ion valence shell :  5 s   1.000
  | Found free-ion valence shell :  5 p   4.000
  | Found free-ion valence shell :  4 d  10.000
  | Found hydrogenic basis function :  3 d   4.000
  | Found hydrogenic basis function :  4 f   6.400
  | Found hydrogenic basis function :  2 p   1.600
  | Found ionic basis function :  5 s , default cutoff radius.
  Species I                   : Missing cutoff potential type.
  Defaulting to exp(1/x)/(1-x)^2 type cutoff potential.
  Species I : No 'logarithmic' tag. Using default grid for free atom:
  | Default logarithmic grid data [bohr] : 0.1000E-03 0.1000E+03 0.1012E+01
  | Will include ionic basis functions of  2.0-fold positive I                    ion.
  Species I : On-site basis accuracy parameter (for Gram-Schmidt orthonormalisation) not specified.
  Using default value basis_acc =  0.1000000E-03.
  Species I                   : Using default innermost maximum threshold i_radial=  2 for radial functions.
  Species I                   : Default cutoff onset for free atom density etc. : 0.40000000E+01 AA.
  Species I                   : Basic radial grid will be enhanced according to radial_multiplier =   2, to contain   129 grid points.
 
  Reading configuration options for species N                   .
  | Found nuclear charge :   7.0000
  | Found atomic mass :    14.0067000000000      amu
  | Found l_max for Hartree potential  :   6
  | Found cutoff potl. onset [A], width [A], scale factor :    4.00000    2.00000    1.00000
  | Threshold for basis-dependent cutoff potential is   0.100000E-03
  | Found data for basic radial integration grid :    35 points, outermost radius =    7.000 A
  | Found multiplier for basic radial grid :   2
  | Found angular grid specification: user-specified.
  | Specified grid contains     6 separate shells.
  | Check grid settings after all constraints further below.
  | Found free-atom valence shell :  2 s   2.000
  | Found free-atom valence shell :  2 p   3.000
  | Found free-ion valence shell :  2 s   1.000
  | Found free-ion valence shell :  2 p   2.000
  | Found hydrogenic basis function :  2 p   1.800
  | Found hydrogenic basis function :  3 d   6.800
  | Found hydrogenic basis function :  3 s   5.800
  Species N                   : Missing cutoff potential type.
  Defaulting to exp(1/x)/(1-x)^2 type cutoff potential.
  Species N : No 'logarithmic' tag. Using default grid for free atom:
  | Default logarithmic grid data [bohr] : 0.1000E-03 0.1000E+03 0.1012E+01
  Species N : On-site basis accuracy parameter (for Gram-Schmidt orthonormalisation) not specified.
  Using default value basis_acc =  0.1000000E-03.
  Species N                   : Using default innermost maximum threshold i_radial=  2 for radial functions.
  Species N                   : Default cutoff onset for free atom density etc. : 0.40000000E+01 AA.
  Species N                   : Basic radial grid will be enhanced according to radial_multiplier =   2, to contain    71 grid points.
 
  Reading configuration options for species Pb                  .
  | Found nuclear charge :  82.0000
  | Found atomic mass :    207.200000000000      amu
  | Found l_max for Hartree potential  :   6
  | Found cutoff potl. onset [A], width [A], scale factor :    4.00000    2.00000    1.00000
  | Threshold for basis-dependent cutoff potential is   0.100000E-03
  | Found data for basic radial integration grid :    74 points, outermost radius =    7.000 A
  | Found multiplier for basic radial grid :   2
  | Found angular grid specification: user-specified.
  | Specified grid contains     5 separate shells.
  | Check grid settings after all constraints further below.
  | Found free-atom valence shell :  6 s   2.000
  | Found free-atom valence shell :  6 p   2.000
  | Found free-atom valence shell :  5 d  10.000
  | Found free-atom valence shell :  4 f  14.000
  | Found free-ion valence shell :  6 s   1.000
  | Found free-ion valence shell :  6 p   1.000
  | Found free-ion valence shell :  5 d  10.000
  | Found free-ion valence shell :  4 f  14.000
  | Found hydrogenic basis function :  3 p   2.300
  | Found hydrogenic basis function :  4 f   7.600
  | Found hydrogenic basis function :  3 d   3.500
  | Found hydrogenic basis function :  5 g   9.800
  | Found hydrogenic basis function :  3 s   3.200
  Species Pb                  : Missing cutoff potential type.
  Defaulting to exp(1/x)/(1-x)^2 type cutoff potential.
  Species Pb: No 'logarithmic' tag. Using default grid for free atom:
  | Default logarithmic grid data [bohr] : 0.1000E-03 0.1000E+03 0.1012E+01
  Species Pb: On-site basis accuracy parameter (for Gram-Schmidt orthonormalisation) not specified.
  Using default value basis_acc =  0.1000000E-03.
  Species Pb                  : Using default innermost maximum threshold i_radial=  2 for radial functions.
  Species Pb                  : Default cutoff onset for free atom density etc. : 0.40000000E+01 AA.
  Species Pb                  : Basic radial grid will be enhanced according to radial_multiplier =   2, to contain   149 grid points.
 
  Reading configuration options for species S                   .
  | Found nuclear charge :  16.0000
  | Found atomic mass :    32.0650000000000      amu
  | Found l_max for Hartree potential  :   6
  | Found cutoff potl. onset [A], width [A], scale factor :    4.00000    2.00000    1.00000
  | Threshold for basis-dependent cutoff potential is   0.100000E-03
  | Found data for basic radial integration grid :    44 points, outermost radius =    7.000 A
  | Found multiplier for basic radial grid :   2
  | Found angular grid specification: user-specified.
  | Specified grid contains     5 separate shells.
  | Check grid settings after all constraints further below.
  | Found free-atom valence shell :  3 s   2.000
  | Found free-atom valence shell :  3 p   4.000
  | Found free-ion valence shell :  3 s   1.000
  | Found free-ion valence shell :  3 p   3.000
  | Found ionic basis function :  3 d , default cutoff radius.
  | Found hydrogenic basis function :  2 p   1.800
  | Found hydrogenic basis function :  4 f   7.000
  | Found ionic basis function :  3 s , default cutoff radius.
  Species S                   : Missing cutoff potential type.
  Defaulting to exp(1/x)/(1-x)^2 type cutoff potential.
  Species S : No 'logarithmic' tag. Using default grid for free atom:
  | Default logarithmic grid data [bohr] : 0.1000E-03 0.1000E+03 0.1012E+01
  | Will include ionic basis functions of  2.0-fold positive S                    ion.
  Species S : On-site basis accuracy parameter (for Gram-Schmidt orthonormalisation) not specified.
  Using default value basis_acc =  0.1000000E-03.
  Species S                   : Using default innermost maximum threshold i_radial=  2 for radial functions.
  Species S                   : Default cutoff onset for free atom density etc. : 0.40000000E+01 AA.
  Species S                   : Basic radial grid will be enhanced according to radial_multiplier =   2, to contain    89 grid points.
 
  Reading configuration options for species W                   .
  | Found nuclear charge :  74.0000
  | Found atomic mass :    183.840000000000      amu
  | Found l_max for Hartree potential  :   6
  | Found cutoff potl. onset [A], width [A], scale factor :    4.00000    2.00000    1.00000
  | Threshold for basis-dependent cutoff potential is   0.100000E-03
  | Found data for basic radial integration grid :    71 points, outermost radius =    7.000 A
  | Found multiplier for basic radial grid :   2
  | Found angular grid specification: user-specified.
  | Specified grid contains     6 separate shells.
  | Check grid settings after all constraints further below.
  | Found free-atom valence shell :  6 s   2.000
  | Found free-atom valence shell :  5 p   6.000
  | Found free-atom valence shell :  5 d   4.000
  | Found free-atom valence shell :  4 f  14.000
  | Found free-ion valence shell :  6 s   1.000
  | Found free-ion valence shell :  5 p   6.000
  | Found free-ion valence shell :  5 d   3.000
  | Found free-ion valence shell :  4 f  14.000
  | Found hydrogenic basis function :  4 f   7.800
  | Found hydrogenic basis function :  4 d   5.800
  | Found ionic basis function :  6 p , default cutoff radius.
  | Found hydrogenic basis function :  5 g  12.400
  | Found ionic basis function :  6 s , default cutoff radius.
  Species W                   : Missing cutoff potential type.
  Defaulting to exp(1/x)/(1-x)^2 type cutoff potential.
  Species W : No 'logarithmic' tag. Using default grid for free atom:
  | Default logarithmic grid data [bohr] : 0.1000E-03 0.1000E+03 0.1012E+01
  | Will include ionic basis functions of  2.0-fold positive W                    ion.
  Species W : On-site basis accuracy parameter (for Gram-Schmidt orthonormalisation) not specified.
  Using default value basis_acc =  0.1000000E-03.
  Species W                   : Using default innermost maximum threshold i_radial=  2 for radial functions.
  Species W                   : Default cutoff onset for free atom density etc. : 0.40000000E+01 AA.
  Species W                   : Basic radial grid will be enhanced according to radial_multiplier =   2, to contain   143 grid points.
 
  Finished reading input file 'control.in'.
 
------------------------------------------------------------


------------------------------------------------------------
          Reading geometry description geometry.in.
------------------------------------------------------------
  | The smallest distance between any two atoms is         1.03525089 AA.
  | The first atom of this pair is atom number                    101 .
  | The second atom of this pair is atom number                   105 .
  | Wigner-Seitz cell of the first atom image           0     0     0 .
  | (The Wigner-Seitz cell of the second atom is 0 0 0  by definition.)

  Symmetry information by spglib:
  | Precision set to  0.1E-04
  | Number of Operations  : 1
  | Space group           : 1
  | International         : P1      /gp
  | Schoenflies           : C1^1
  Input structure read successfully.
  The structure contains      239 atoms,  and a total of       3514.000 electrons.

  Input geometry:
  | Unit cell:
  |       19.11140000        0.00000000        0.00000000
  |        3.02265591        7.75691148        0.00000000
  |        0.00000000        0.00000000      152.72100000
  | Atomic structure:
  |       Atom                x [A]            y [A]            z [A]
  |    1: Species H             9.01789962        0.31485304       22.37362650
  |    2: Species H            20.08492758        4.19330878       22.37362650
  |    3: Species H            14.61130499        2.30380271       22.41180675
  |    4: Species H             6.56693295        6.18225845       22.41180675
  |    5: Species C             8.20279905        0.70083695       22.98603771
  |    6: Species C            19.26982701        4.57929269       22.98603771
  |    7: Species C            13.77277075        2.66349070       23.00741865
  |    8: Species C             5.72839871        6.54194644       23.00741865
  |    9: Species H            12.80799770        0.73938880       23.09446962
  |   10: Species H             4.76362566        4.61784454       23.09446962
  |   11: Species H             8.93221726        2.72818334       22.95854793
  |   12: Species H            19.99924522        6.60663908       22.95854793
  |   13: Species H             3.43595376        0.80951128       23.09141520
  |   14: Species H            14.50298172        4.68796702       23.09141520
  |   15: Species H            18.31597178        2.66162904       23.19068385
  |   16: Species H            10.27159973        6.54008478       23.19068385
  |   17: Species C            12.75906269        1.78695970       23.39227557
  |   18: Species C             4.71469065        5.66541544       23.39227557
  |   19: Species C             8.15164024        2.05511613       23.31286065
  |   20: Species C            19.21866820        5.93357187       23.31286065
  |   21: Species C            18.27278668        3.71905121       23.45183676
  |   22: Species C            10.22841464        7.59750695       23.45183676
  |   23: Species C             2.64379201        0.12535169       23.39380278
  |   24: Species C            13.71081997        4.00380743       23.39380278
  |   25: Species C            11.69108551        2.24593615       24.16504383
  |   26: Species C             3.64671347        6.12439189       24.16504383
  |   27: Species C             7.10902051        2.54434453       24.10242822
  |   28: Species C            18.17604846        6.42280028       24.10242822
  |   29: Species C             6.16564298        0.32889305       24.24140433
  |   30: Species C             1.57961567        0.58231134       24.17115267
  |   31: Species C            17.23267094        4.20734879       24.24140433
  |   32: Species C            12.64664363        4.46076709       24.17115267
  |   33: Species H             7.07061326        3.60176671       24.36816276
  |   34: Species H            18.13764122        7.48022245       24.36816276
  |   35: Species H            10.90162765        1.55890650       24.47354025
  |   36: Species H             2.85725561        5.43736224       24.47354025
  |   37: Species H            16.46176764        3.53017042       24.61251636
  |   38: Species H             8.41739560        7.40862616       24.61251636
  |   39: Species H             1.53141297        1.62685704       24.48575793
  |   40: Species H            12.59844093        5.50531279       24.48575793
  |   41: Species C            11.62313998        3.58656316       24.56364564
  |   42: Species C             3.57876794        7.46501890       24.56364564
  |   43: Species C             6.10359549        1.69054129       24.57280890
  |   44: Species C            17.17043233        5.56899703       24.57280890
  |   45: Species H             4.01930659        1.87593147       25.11496845
  |   46: Species H            15.08633455        5.75438721       25.11496845
  |   47: Species H            18.15558132        1.15927042       25.08900588
  |   48: Species H            10.11120927        5.03772616       25.08900588
  |   49: Species H             9.65871326        3.36153516       25.41277440
  |   50: Species H            20.72574121        7.23999090       25.41277440
  |   51: Species H             4.98358928        3.32647392       25.40666556
[...]
  |   238       16.197448       -0.197448        5.846803       10.052106        0.250607        0.047932
  |   239       16.197217       -0.197217        5.846727       10.052101        0.250482        0.047908
  |
  | Total     3514.000000        0.000000
 
  Calculating angular momentum projected density of states ...
  | Chemical potential is  -5.055454 eV.
  | writing   projected DOS (shifted by the chemical potential) for species H to file H_l_proj_dos_tetrahedron.dat.
  | writing   projected DOS (raw data) for species H to file H_l_proj_dos_tetrahedron_raw.dat.
  | writing   projected DOS (shifted by the chemical potential) for species C to file C_l_proj_dos_tetrahedron.dat.
  | writing   projected DOS (raw data) for species C to file C_l_proj_dos_tetrahedron_raw.dat.
  | writing   projected DOS (shifted by the chemical potential) for species I to file I_l_proj_dos_tetrahedron.dat.
  | writing   projected DOS (raw data) for species I to file I_l_proj_dos_tetrahedron_raw.dat.
  | writing   projected DOS (shifted by the chemical potential) for species N to file N_l_proj_dos_tetrahedron.dat.
  | writing   projected DOS (raw data) for species N to file N_l_proj_dos_tetrahedron_raw.dat.
  | writing   projected DOS (shifted by the chemical potential) for species Pb to file Pb_l_proj_dos_tetrahedron.dat.
  | writing   projected DOS (raw data) for species Pb to file Pb_l_proj_dos_tetrahedron_raw.dat.
  | writing   projected DOS (shifted by the chemical potential) for species S to file S_l_proj_dos_tetrahedron.dat.
  | writing   projected DOS (raw data) for species S to file S_l_proj_dos_tetrahedron_raw.dat.
  | writing   projected DOS (shifted by the chemical potential) for species W to file W_l_proj_dos_tetrahedron.dat.
  | writing   projected DOS (raw data) for species W to file W_l_proj_dos_tetrahedron_raw.dat.

  Mulliken analysis                                       :  max(cpu_time)    wall_clock(cpu1)
  | Time for Mulliken analysis (scalar relativistic)      :          2.157               2.299
  | Time for Mulliken analysis (spin-orbit coupled)       :          8.349               8.463
  | Total time for Mulliken analysis                      :         10.506              10.762
------------------------------------------------------------
 Output mulliken decomposition of band k points for SOC in ScaLAPACK

  -------------------------------------------------------------------
  Writing the requested band structure output (ScaLAPACK version):
  -------------------------------------------------------------------

  Integrating Hamiltonian matrix: batch-based integration.
  Time summed over all CPUs for integration: real work      385.379 s, elapsed      402.403 s
  Allocating      144.816 MB for soc_matrix
  Integrating SOC matrix: batch-based integration p2 version.
  Allocating        1.483 MB for dist_tab
  Allocating        1.483 MB for dist_tab_sq
  Allocating        4.449 MB for dir_tab
  Allocating        0.289 MB for i_basis_fns
  Allocating        7.467 MB for i_basis_fns_inv
  Allocating        0.289 MB for i_atom_fns
  Allocating        4.395 MB for gradient_basis_wave
  Allocating        0.013 MB for ylm_tab
  Allocating        0.002 MB for radial_wave
  Allocating        0.002 MB for radial_wave_deriv
  Allocating        0.051 MB for i_basis
  Allocating        7.031 MB for soc_shell
  Allocating        0.038 MB for cartesians
  Allocating        0.038 MB for sum_gradient
  Allocating        0.076 MB for sum_hessian
  Allocating        0.002 MB for potential_shell

  Treating all k-points in band plot segment #   1, one-by-one:


  Allocating      273.076 MB for mulliken_decomp
  Calculating k-point    1 in band plot segment #   1:
  Overlap matrix is not singular
  | Lowest and highest eigenvalues :  0.4572E-03,  0.8552E+01
  Finished singularity check of overlap matrix
  | Time :     1.897 s
  Starting ELPA eigensolver
  Finished Cholesky decomposition
  | Time :     1.114 s
  Finished transformation to standard eigenproblem
  | Time :     1.117 s
  Finished solving standard eigenproblem
  | Time :     5.333 s
  Finished back-transformation of eigenvectors
  | Time :     0.589 s

  Calculating k-point   21 in band plot segment #   1:
  Overlap matrix is not singular
  | Lowest and highest eigenvalues :  0.4562E-03,  0.8420E+01
  Finished singularity check of overlap matrix
  | Time :     2.420 s
  Starting ELPA eigensolver
  Finished Cholesky decomposition
  | Time :     1.204 s
  Finished transformation to standard eigenproblem
  | Time :     1.500 s
  Finished solving standard eigenproblem
  | Time :     5.418 s
  Finished back-transformation of eigenvectors
  | Time :     0.590 s

  Calculating k-point   41 in band plot segment #   1:
  Overlap matrix is not singular
  | Lowest and highest eigenvalues :  0.4759E-03,  0.8193E+01
  Finished singularity check of overlap matrix
  | Time :     2.188 s
  Starting ELPA eigensolver
  Finished Cholesky decomposition
  | Time :     1.141 s
  Finished transformation to standard eigenproblem
  | Time :     1.382 s
  Finished solving standard eigenproblem
  | Time :     5.883 s
  Finished back-transformation of eigenvectors
  | Time :     0.668 s

  Spin-orbit-coupled "band gap" along reciprocal space direction number:    1
  |Lowest unoccupied state:      -4.07893701eV
  |Highest occupied state:        -5.09250353eV


  Treating all k-points in band plot segment #   2, one-by-one:


  Allocating      182.051 MB for mulliken_decomp
  Calculating k-point    1 in band plot segment #   2:
  Overlap matrix is not singular
  | Lowest and highest eigenvalues :  0.4784E-03,  0.8151E+01
  Finished singularity check of overlap matrix
  | Time :     1.729 s
  Starting ELPA eigensolver
  Finished Cholesky decomposition
  | Time :     0.650 s
  Finished transformation to standard eigenproblem
  | Time :     1.101 s
  Finished solving standard eigenproblem
  | Time :     5.367 s
  Finished back-transformation of eigenvectors
  | Time :     0.577 s

  Calculating k-point   21 in band plot segment #   2:
  Overlap matrix is not singular
  | Lowest and highest eigenvalues :  0.4782E-03,  0.8153E+01
  Finished singularity check of overlap matrix
  | Time :     1.890 s
  Starting ELPA eigensolver
  Finished Cholesky decomposition
  | Time :     0.810 s
  Finished transformation to standard eigenproblem
  | Time :     1.080 s
  Finished solving standard eigenproblem
  | Time :     5.427 s
  Finished back-transformation of eigenvectors
  | Time :     0.581 s

  Spin-orbit-coupled "band gap" along reciprocal space direction number:    2
  |Lowest unoccupied state:      -4.03228872eV
  |Highest occupied state:        -5.40207551eV


  Treating all k-points in band plot segment #   3, one-by-one:


  Allocating       91.025 MB for mulliken_decomp
  Calculating k-point    1 in band plot segment #   3:
  Overlap matrix is not singular
  | Lowest and highest eigenvalues :  0.4780E-03,  0.8154E+01
  Finished singularity check of overlap matrix
  | Time :     1.733 s
  Starting ELPA eigensolver
  Finished Cholesky decomposition
  | Time :     0.631 s
  Finished transformation to standard eigenproblem
  | Time :     1.099 s
  Finished solving standard eigenproblem
  | Time :     5.354 s
  Finished back-transformation of eigenvectors
  | Time :     0.575 s

  Spin-orbit-coupled "band gap" along reciprocal space direction number:    3
  |Lowest unoccupied state:      -4.03228872eV
  |Highest occupied state:        -5.31818609eV


  Treating all k-points in band plot segment #   4, one-by-one:


  Allocating       91.025 MB for mulliken_decomp
  Calculating k-point    1 in band plot segment #   4:
  Overlap matrix is not singular
  | Lowest and highest eigenvalues :  0.4823E-03,  0.8159E+01
  Finished singularity check of overlap matrix
  | Time :     1.724 s
  Starting ELPA eigensolver
  Finished Cholesky decomposition
  | Time :     0.646 s
  Finished transformation to standard eigenproblem
  | Time :     1.098 s
  Finished solving standard eigenproblem
  | Time :     5.352 s
  Finished back-transformation of eigenvectors
  | Time :     0.580 s

  Spin-orbit-coupled "band gap" along reciprocal space direction number:    4
  |Lowest unoccupied state:      -4.03228872eV
  |Highest occupied state:        -5.31818609eV


  Treating all k-points in band plot segment #   5, one-by-one:


  Allocating      273.076 MB for mulliken_decomp
  Calculating k-point    1 in band plot segment #   5:
  Overlap matrix is not singular
  | Lowest and highest eigenvalues :  0.4780E-03,  0.8154E+01
  Finished singularity check of overlap matrix
  | Time :     1.725 s
  Starting ELPA eigensolver
  Finished Cholesky decomposition
  | Time :     0.662 s
  Finished transformation to standard eigenproblem
  | Time :     1.102 s
  Finished solving standard eigenproblem
  | Time :     5.344 s
  Finished back-transformation of eigenvectors
  | Time :     0.580 s

  Calculating k-point   21 in band plot segment #   5:
  Overlap matrix is not singular
  | Lowest and highest eigenvalues :  0.4638E-03,  0.8213E+01
  Finished singularity check of overlap matrix
  | Time :     1.914 s
  Starting ELPA eigensolver
  Finished Cholesky decomposition
  | Time :     0.750 s
  Finished transformation to standard eigenproblem
  | Time :     1.107 s
  Finished solving standard eigenproblem
  | Time :     5.391 s
  Finished back-transformation of eigenvectors
  | Time :     0.597 s

  Calculating k-point   41 in band plot segment #   5:
  Overlap matrix is not singular
  | Lowest and highest eigenvalues :  0.4639E-03,  0.8371E+01
  Finished singularity check of overlap matrix
  | Time :     2.246 s
  Starting ELPA eigensolver
  Finished Cholesky decomposition
  | Time :     1.083 s
  Finished transformation to standard eigenproblem
  | Time :     1.189 s
  Finished solving standard eigenproblem
  | Time :     5.534 s
  Finished back-transformation of eigenvectors
  | Time :     0.549 s

  Spin-orbit-coupled "band gap" along reciprocal space direction number:    5
  |Lowest unoccupied state:      -4.13197784eV
  |Highest occupied state:        -5.28777126eV


  Treating all k-points in band plot segment #   6, one-by-one:


  Allocating      182.051 MB for mulliken_decomp
  Calculating k-point    1 in band plot segment #   6:
  Overlap matrix is not singular
  | Lowest and highest eigenvalues :  0.4668E-03,  0.8396E+01
  Finished singularity check of overlap matrix
  | Time :     1.769 s
  Starting ELPA eigensolver
  Finished Cholesky decomposition
  | Time :     0.642 s
  Finished transformation to standard eigenproblem
  | Time :     1.105 s
  Finished solving standard eigenproblem
  | Time :     5.352 s
  Finished back-transformation of eigenvectors
  | Time :     0.578 s

  Calculating k-point   21 in band plot segment #   6:
  Overlap matrix is not singular
  | Lowest and highest eigenvalues :  0.4542E-03,  0.8534E+01
  Finished singularity check of overlap matrix
  | Time :     1.890 s
  Starting ELPA eigensolver
  Finished Cholesky decomposition
  | Time :     0.800 s
  Finished transformation to standard eigenproblem
  | Time :     1.073 s
  Finished solving standard eigenproblem
  | Time :     5.411 s
  Finished back-transformation of eigenvectors
  | Time :     0.588 s

  Spin-orbit-coupled "band gap" along reciprocal space direction number:    6
  |Lowest unoccupied state:      -3.96783968eV
  |Highest occupied state:        -5.09250353eV


  Treating all k-points in band plot segment #   7, one-by-one:


  Allocating      182.051 MB for mulliken_decomp
  Calculating k-point    1 in band plot segment #   7:
  Overlap matrix is not singular
  | Lowest and highest eigenvalues :  0.4572E-03,  0.8552E+01
  Finished singularity check of overlap matrix
  | Time :     1.730 s
  Starting ELPA eigensolver
  Finished Cholesky decomposition
  | Time :     0.638 s
  Finished transformation to standard eigenproblem
  | Time :     1.095 s
  Finished solving standard eigenproblem
  | Time :     5.316 s
  Finished back-transformation of eigenvectors
  | Time :     0.573 s

  Calculating k-point   21 in band plot segment #   7:
  Overlap matrix is not singular
  | Lowest and highest eigenvalues :  0.4789E-03,  0.8177E+01
  Finished singularity check of overlap matrix
  | Time :     1.893 s
  Starting ELPA eigensolver
  Finished Cholesky decomposition
  | Time :     0.802 s
  Finished transformation to standard eigenproblem
  | Time :     1.074 s
  Finished solving standard eigenproblem
  | Time :     5.411 s
  Finished back-transformation of eigenvectors
  | Time :     0.579 s

  Spin-orbit-coupled "band gap" along reciprocal space direction number:    7
  |Lowest unoccupied state:      -4.12526759eV
  |Highest occupied state:        -5.09250353eV


  Band Structure                                          :  max(cpu_time) wall_clock(cpu1)
  | Total Time                                            :        777.621          782.900
------------------------------------------------------------

------------------------------------------------------------------------------
  Final output of selected total energy values:

  The following output summarizes some interesting total energy values
  at the end of a run (AFTER all relaxation, molecular dynamics, etc.).

  | Total energy of the DFT / Hartree-Fock s.c.f. calculation      :      -13651758.677906305 eV
  | Final zero-broadening corrected energy (caution - metals only) :      -13651758.677906305 eV
  | Total energy after non-SC SOC correction (DO NOT USE)          :      -13651806.669570426 eV
  | For reference only, the value of 1 Hartree used in FHI-aims is :             27.211384500 eV
  | For reference only, the overall average (free atom contribution
  | + realspace contribution) of the electrostatic potential after
  | s.c.f. convergence is                                          :             -1.756430365 eV

  Before relying on these values, please be sure to understand exactly which
  total energy value is referred to by a given number. Different objects may
  all carry the same name 'total energy'. Definitions:

  Total energy of the DFT / Hartree-Fock s.c.f. calculation:
  | Note that this energy does not include ANY quantities calculated after the
  | s.c.f. cycle, in particular not ANY RPA, MP2, etc. many-body perturbation terms.

  Final zero-broadening corrected energy:
  | For metallic systems only, a broadening of the occupation numbers at the Fermi
  | level can be extrapolated back to zero broadening by an electron-gas inspired
  | formula. For all systems that are not real metals, this value can be
  | meaningless and should be avoided.

------------------------------------------------------------------------------
  Methods described in the following list of references were used in this FHI-aims run.
  If you publish the results, please make sure to cite these reference if they apply.
  FHI-aims is an academic code, and for our developers (often, Ph.D. students
  and postdocs), scientific credit in the community is essential.
  Thank you for helping us!

  For any use of FHI-aims, please cite:

    Volker Blum, Ralf Gehrke, Felix Hanke, Paula Havu, Ville Havu,
    Xinguo Ren, Karsten Reuter, and Matthias Scheffler
    'Ab initio molecular simulations with numeric atom-centered orbitals'
    Computer Physics Communications 180, 2175-2196 (2009)
    http://dx.doi.org/10.1016/j.cpc.2009.06.022


  The provided symmetry information was generated with SPGlib:

    Atsushi Togo, Yusuke Seto, Dimitar Pashov
    SPGlib 1.7.3 obtained from http://spglib.sourceforge.net
    Copyright (C) 2008 Atsushi Togo


  For second-variational spin-orbit coupling used in your run, please cite:

    William P. Huhn and Volker Blum,
    'One-hundred-three compound band-structure benchmark of post-self-consistent'
    'spin-orbit coupling treatments in density functional theory'
    Phys. Rev. Materials 1, 033803 (2017).


  The ELSI infrastructure was used in your run to solve the Kohn-Sham electronic structure.
  Please check out http://elsi-interchange.org to learn more.
  If scalability is important for your project, please acknowledge ELSI by citing:

    V. W-z. Yu, F. Corsetti, A. Garcia, W. P. Huhn, M. Jacquelin, W. Jia,
    B. Lange, L. Lin, J. Lu, W. Mi, A. Seifitokaldani, A. Vazquez-Mayagoitia,
    C. Yang, H. Yang, and V. Blum
    'ELSI: A unified software interface for Kohn-Sham electronic structure solvers'
    Computer Physics Communications 222, 267-285 (2018).
    http://dx.doi.org/10.1016/j.cpc.2017.09.007


  For the real-space grid partitioning and parallelization used in this calculation, please cite:

    Ville Havu, Volker Blum, Paula Havu, and Matthias Scheffler,
    'Efficient O(N) integration for all-electron electronic structure calculation'
    'using numerically tabulated basis functions'
    Journal of Computational Physics 228, 8367-8379 (2009).
    http://dx.doi.org/10.1016/j.jcp.2009.08.008

  Of course, there are many other important community references, e.g., those cited in the
  above references. Our list is limited to references that describe implementations in the
  FHI-aims code. The reason is purely practical (length of this list) - please credit others as well.

------------------------------------------------------------
          Leaving FHI-aims.
          Date     :  20201121, Time     :  103751.227

          Computational steps:
          | Number of self-consistency cycles          :           27
          | Number of SCF (re)initializations          :            1

          Detailed time accounting                     :  max(cpu_time)    wall_clock(cpu1)
          | Total time                                 :     1368.071 s        1374.540 s
          | Preparation time                           :        0.869 s           0.877 s
          | Boundary condition initalization           :        1.967 s           1.973 s
          | Grid partitioning                          :        1.655 s           1.659 s
          | Preloading free-atom quantities on grid    :        1.724 s           1.729 s
          | Free-atom superposition energy             :        0.230 s           0.231 s
          | Total time for integrations                :       45.942 s          46.174 s
          | Total time for solution of K.-S. equations :      241.033 s         242.108 s
          | Total time for density update              :       87.820 s          88.292 s
          | Total time for mixing & preconditioning    :       49.723 s          49.900 s
          | Total time for Hartree multipole update    :        1.852 s           1.859 s
          | Total time for Hartree multipole sum       :      103.943 s         104.310 s
          | Total time for total energy evaluation     :        0.048 s           0.042 s
          | Total time for scaled ZORA corrections     :        0.000 s           0.000 s
          | Total time for perturbative SOC            :       39.959 s          40.143 s
          | Total time for Mulliken analysis           :       10.622 s          10.762 s

          Partial memory accounting:
          | Residual value for overall tracked memory usage across tasks:     0.000000 MB (should be 0.000000 MB)
          | Peak values for overall tracked memory usage:
          |   Minimum:      828.711 MB (on task   8 after allocating tmp_complx)
          |   Maximum:      853.758 MB (on task  15 after allocating tmp_complx)
          |   Average:      842.029 MB
          | Largest tracked array allocation:
          |   Minimum:      273.076 MB (mulliken_decomp on task   0)
          |   Maximum:      273.076 MB (mulliken_decomp on task   0)
          |   Average:      273.076 MB
          Note:  These values currently only include a subset of arrays which are explicitly tracked.
          The "true" memory usage will be greater.

          Have a nice day.
------------------------------------------------------------
