------------------------------------------------------------
          Invoking FHI-aims ...

          When using FHI-aims, please cite the following reference:

          Volker Blum, Ralf Gehrke, Felix Hanke, Paula Havu,
          Ville Havu, Xinguo Ren, Karsten Reuter, and Matthias Scheffler,
          'Ab Initio Molecular Simulations with Numeric Atom-Centered Orbitals',
          Computer Physics Communications 180, 2175-2196 (2009)

          For any questions about FHI-aims, please visit the aimsclub website
          with its forums and wiki. Contributions to both the forums and the
          wiki are warmly encouraged - they are for you, and everyone is welcome there.

------------------------------------------------------------



  Date     :  20200420, Time     :  204645.654
  Time zero on CPU 1             :   0.110781000000000E+00  s.
  Internal wall clock time zero  :           356647605.654  s.

  FHI-aims created a unique identifier for this run for later identification
  aims_uuid : E66B4126-2B57-483A-A0FB-96FE49349057

  Build configuration of the current instance of FHI-aims
  -------------------------------------------------------
  FHI-aims version      : 200112
  Commit number         : 23daeca3f
  CMake host system     : Linux-3.10.0-693.21.1.el7.x86_64
  CMake version         : 3.13.3
  Fortran compiler      : /sw/installed/impi/2018.4.274-iccifort-2019.1.144-GCC-8.2.0-2.31.1/bin64/mpiifort (Intel) version 19.0.0.20181018
  Fortran compiler flags: -O3 -ip -fp-model precise
  C compiler            : /sw/installed/impi/2018.4.274-iccifort-2019.1.144-GCC-8.2.0-2.31.1/bin64/mpiicc (Intel) version 19.0.0.20181018
  C compiler flags      : -O3 -ip -fp-model precise
  Architecture          :
  Using MPI
  Using Scalapack
  Using C files
  Using LibXC
  Using SPGlib
  Using i-PI
  Using RLSY
  Linking against: /sw/installed/imkl/2019.1.144-iimpi-2019a/mkl/lib/intel64/libmkl_intel_lp64.so
                   /sw/installed/imkl/2019.1.144-iimpi-2019a/mkl/lib/intel64/libmkl_sequential.so
                   /sw/installed/imkl/2019.1.144-iimpi-2019a/mkl/lib/intel64/libmkl_core.so
                   /sw/installed/imkl/2019.1.144-iimpi-2019a/mkl/lib/intel64/libmkl_blacs_intelmpi_lp64.so
                   /sw/installed/imkl/2019.1.144-iimpi-2019a/mkl/lib/intel64/libmkl_scalapack_lp64.so

  Using       24 parallel tasks.
  Task        0 on host taurusi6420.taurus.hrsk.tu-dresden.de reporting.
  Task        1 on host taurusi6420.taurus.hrsk.tu-dresden.de reporting.
  Task        2 on host taurusi6420.taurus.hrsk.tu-dresden.de reporting.
  Task        3 on host taurusi6420.taurus.hrsk.tu-dresden.de reporting.
  Task        4 on host taurusi6420.taurus.hrsk.tu-dresden.de reporting.
  Task        5 on host taurusi6420.taurus.hrsk.tu-dresden.de reporting.
  Task        6 on host taurusi6420.taurus.hrsk.tu-dresden.de reporting.
  Task        7 on host taurusi6420.taurus.hrsk.tu-dresden.de reporting.
  Task        8 on host taurusi6420.taurus.hrsk.tu-dresden.de reporting.
  Task        9 on host taurusi6420.taurus.hrsk.tu-dresden.de reporting.
  Task       10 on host taurusi6420.taurus.hrsk.tu-dresden.de reporting.
  Task       11 on host taurusi6420.taurus.hrsk.tu-dresden.de reporting.
  Task       12 on host taurusi6420.taurus.hrsk.tu-dresden.de reporting.
  Task       13 on host taurusi6420.taurus.hrsk.tu-dresden.de reporting.
  Task       14 on host taurusi6420.taurus.hrsk.tu-dresden.de reporting.
  Task       15 on host taurusi6420.taurus.hrsk.tu-dresden.de reporting.
  Task       16 on host taurusi6420.taurus.hrsk.tu-dresden.de reporting.
  Task       17 on host taurusi6420.taurus.hrsk.tu-dresden.de reporting.
  Task       18 on host taurusi6420.taurus.hrsk.tu-dresden.de reporting.
  Task       19 on host taurusi6420.taurus.hrsk.tu-dresden.de reporting.
  Task       20 on host taurusi6420.taurus.hrsk.tu-dresden.de reporting.
  Task       21 on host taurusi6420.taurus.hrsk.tu-dresden.de reporting.
  Task       22 on host taurusi6420.taurus.hrsk.tu-dresden.de reporting.
  Task       23 on host taurusi6420.taurus.hrsk.tu-dresden.de reporting.

  Performing system and environment tests:
  | Environment variable OMP_NUM_THREADS correctly set to 1.
  | Maximum stacksize for task 0: unlimited
  | Maximum stacksize for task 1: unlimited
  | Maximum stacksize for task 2: unlimited
  | Maximum stacksize for task 3: unlimited
  | Maximum stacksize for task 4: unlimited
  | Maximum stacksize for task 5: unlimited
  | Maximum stacksize for task 6: unlimited
  | Maximum stacksize for task 7: unlimited
  | Maximum stacksize for task 8: unlimited
  | Maximum stacksize for task 9: unlimited
  | Maximum stacksize for task 10: unlimited
  | Maximum stacksize for task 11: unlimited
  | Maximum stacksize for task 12: unlimited
  | Maximum stacksize for task 13: unlimited
  | Maximum stacksize for task 14: unlimited
  | Maximum stacksize for task 15: unlimited
  | Maximum stacksize for task 16: unlimited
  | Maximum stacksize for task 17: unlimited
  | Maximum stacksize for task 18: unlimited
  | Maximum stacksize for task 19: unlimited
  | Maximum stacksize for task 20: unlimited
  | Maximum stacksize for task 21: unlimited
  | Maximum stacksize for task 22: unlimited
  | Maximum stacksize for task 23: unlimited
  | Current stacksize for task 0: unlimited
  | Current stacksize for task 1: unlimited
  | Current stacksize for task 2: unlimited
  | Current stacksize for task 3: unlimited
  | Current stacksize for task 4: unlimited
  | Current stacksize for task 5: unlimited
  | Current stacksize for task 6: unlimited
  | Current stacksize for task 7: unlimited
  | Current stacksize for task 8: unlimited
  | Current stacksize for task 9: unlimited
  | Current stacksize for task 10: unlimited
  | Current stacksize for task 11: unlimited
  | Current stacksize for task 12: unlimited
  | Current stacksize for task 13: unlimited
  | Current stacksize for task 14: unlimited
  | Current stacksize for task 15: unlimited
  | Current stacksize for task 16: unlimited
  | Current stacksize for task 17: unlimited
  | Current stacksize for task 18: unlimited
  | Current stacksize for task 19: unlimited
  | Current stacksize for task 20: unlimited
  | Current stacksize for task 21: unlimited
  | Current stacksize for task 22: unlimited
  | Current stacksize for task 23: unlimited
  | Checking for scalapack...
  | Testing pdtran()...
  | All pdtran() tests passed.

  Obtaining array dimensions for all initial allocations:
  
  -----------------------------------------------------------------------
  Parsing control.in (first pass over file, find array dimensions only).
  The contents of control.in will be repeated verbatim below
  unless switched off by setting 'verbatim_writeout .false.' .
  in the first line of control.in .
  -----------------------------------------------------------------------
  
  #===============================================================================
  # FHI-aims file: ./control.in
  # Created using the Atomic Simulation Environment (ASE)
  # Thu Apr  2 11:27:09 2020
  #===============================================================================
  xc                                 pbe
  # include_spin_orbit
  # vdw_correction_hirshfeld
  many_body_dispersion
  spin                               none
  k_grid 	 	 17 17 14
  relativistic                       atomic_zora scalar
  energy_tolerance 1e-2
  harmonic_length_scale  0.015
  ### SCF settings
  adjust_scf 	 always 	 3
  # frozen_core_scf 	 .true.
  # charge_mix_param  0.05
  # occupation_type 	 gaussian 	 0.01
  # sc_accuracy_eev   1E-3 	 	 # sum of eigenvalues convergence
  # sc_accuracy_etot  1E-6 	 	 # total energy convergence
  # sc_accuracy_rho   1E-3 	 	 # electron density convergence
  # elsi_restart 	 read_and_write 	 1000
  ### geometry optimisation section
  relax_geometry 	 bfgs 	 1E-2
  relax_unit_cell 	 full
  #===============================================================================
  
  ################################################################################
  #
  #  FHI-aims code project
  # Volker Blum, Fritz Haber Institute Berlin, 2009
  #
  #  Suggested "tight" defaults for Pd atom (to be pasted into control.in file)
  #
  ################################################################################
    species        Pd
  #     global species definitions
      nucleus             46
      mass                106.42
  #
      l_hartree           6
  #
      cut_pot             4.0  2.0  1.0
      basis_dep_cutoff    1e-4
  #
      radial_base         62 7.0
      radial_multiplier   2
      angular_grids specified
        division   0.3627   50
        division   0.7349  110
        division   1.0624  194
        division   1.2496  302
        division   1.6740  434
  #      division   2.0126  590
  #      division   2.0830  770
  #      division   2.7936 1202
  #       outer_grid  974
        outer_grid  434
  ################################################################################
  #
  #  Definition of "minimal" basis
  #
  ################################################################################
  #     valence basis states
      valence      5  s   1.
      valence      4  p   6.
      valence      4  d   9.
  #     ion occupancy
      ion_occ     5  s   0.
      ion_occ     4  p   6.
      ion_occ     4  d   8.
  ################################################################################
  #
  #  Suggested additional basis functions. For production calculations,
  #  uncomment them one after another (the most important basis functions are
  #  listed first).
  #
  #  Constructed for dimers: 2.0 A, 2.275 A, 2.75 A, 3.75 A
  #
  ################################################################################
  #  "First tier" - max. impr. -120.76  meV, min. impr. -5.71 meV
       ionic 5 p auto
       hydro 4 f 8
       hydro 5 g 10
       hydro 3 s 2.6
       hydro 3 d 2.5
  #  "Second tier" - max. impr. -5.00  meV, min. impr. -0.62 meV
  #     hydro 5 f 17.2
  #     hydro 6 h 14
  #     hydro 4 d 4
  #     hydro 5 f 7.6
  #     hydro 3 p 3.3
  #     hydro 4 s 9.4
  #  "Third tier" - max. impr. -0.54  meV, min. impr. -0.14 meV
  #     hydro 4 f 20
  #     hydro 5 g 12.8
  #     hydro 5 d 9.8
  #     hydro 6 h 15.2
  #     hydro 5 s 10
  #     hydro 6 p 9.8
  #  "Fourth tier" - max. impr. -0.15  meV, min. impr. -0.05 meV
  #     hydro 5 f 9.2
  #     hydro 2 s 5.6
  #     hydro 5 f 43.2
  #     hydro 5 d 13.2
  #     hydro 5 g 14
  #     hydro 4 p 4.7
  ################################################################################
  #
  #  FHI-aims code project
  # Volker Blum, Fritz Haber Institute Berlin, 2009
  #
  #  Suggested "tight" defaults for Se atom (to be pasted into control.in file)
  #
  ################################################################################
    species        Se
  #     global species definitions
      nucleus             34
      mass                78.96
  #
      l_hartree           6
  #
      cut_pot             4.0          2.0  1.0
      basis_dep_cutoff    1e-4
  #
      radial_base         55 7.0
      radial_multiplier   2
      angular_grids       specified
        division   0.0830  110
        division   0.1357  194
        division   0.7377  302
        division   0.8610  434
  #      division   0.9640  590
  #      division   1.0773  770
  #      division   2.5539  974
  #      outer_grid  974
        outer_grid  434
  ################################################################################
  #
  #  Definition of "minimal" basis
  #
  ################################################################################
  #     valence basis states
      valence      4  s   2.
      valence      4  p   4.
      valence      3  d  10.
  #     ion occupancy
      ion_occ      4  s   1.
      ion_occ      4  p   3.
      ion_occ      3  d  10.
  ################################################################################
  #
  #  Suggested additional basis functions. For production calculations,
  #  uncomment them one after another (the most important basis functions are
  #  listed first).
  #
  #  Constructed for dimers: 1.85 A, 2.15 A, 2.50 A, 3.00 A, 4.00 A
  #
  ################################################################################
  #  "First tier" - improvements: -336.21 meV to -36.85 meV
       hydro 3 d 4.3
       hydro 2 p 1.6
       hydro 4 f 7.2
       ionic 4 s auto
  #  "Second tier" - improvements: -14.39 meV to -1.49 meV
  #     hydro 5 g 10.4
  #     hydro 4 p 4.5
  #     hydro 4 d 6.2
  #     hydro 4 f 11.2
  #     hydro 1 s 0.65
  #     hydro 6 h 15.2
  #  "Third tier" - improvements: -0.46 meV and below
  #     hydro 5 g 14.4
  #     ionic 4 d auto
  #     hydro 4 f 22.4
  #     hydro 5 f 7.4
  #     hydro 5 p 8
  #     hydro 5 s 9.4
  #  "Fourth tier" - improvements: -0.12 meV and below
  #     hydro 5 d 11.6
  #     hydro 6 h 18
  #     hydro 4 p 4
  #     hydro 5 f 16
  #     hydro 4 s 3.9
  #
  #
  
  -----------------------------------------------------------------------
  Completed first pass over input file control.in .
  -----------------------------------------------------------------------
  
  
  -----------------------------------------------------------------------
  Parsing geometry.in (first pass over file, find array dimensions only).
  The contents of geometry.in will be repeated verbatim below
  unless switched off by setting 'verbatim_writeout .false.' .
  in the first line of geometry.in .
  -----------------------------------------------------------------------
  
  #
  # This is the geometry file that corresponds to the current relaxation step.
  # If you do not want this file to be written, set the "write_restart_geometry" flag to .false.
  #  aims_uuid : 6A48073D-1E56-481A-A5CC-18C924A1A0E1
  #
  lattice_vector      5.85113195      0.00000000      0.00000000
  lattice_vector      0.00000000      5.95733513      0.00000000
  lattice_vector      0.00000000      0.00000000      7.44913287
  atom_frac       0.50224654      0.00168793      0.00158494 Pd
  atom_frac       0.00167767      0.00168167      0.50237593 Pd
  atom_frac       0.00173711      0.50225538      0.00158898 Pd
  atom_frac       0.50230632      0.50225023      0.50237298 Pd
  atom_frac       0.61409610      0.11974080      0.40422862 Se
  atom_frac       0.89100275      0.88480889      0.90471229 Se
  atom_frac       0.11351386      0.38426202      0.60040866 Se
  atom_frac       0.39042009      0.62030763      0.09973531 Se
  atom_frac       0.39044713      0.88481916      0.60041007 Se
  atom_frac       0.11353093      0.11972876      0.09973045 Se
  atom_frac       0.89100125      0.62030758      0.40423448 Se
  atom_frac       0.61410628      0.38423601      0.90470330 Se
  #
  # What follows is the current estimated Hessian matrix constructed by the BFGS algorithm.
  # This is NOT the true Hessian matrix of the system.
  # If you do not want this information here, switch it off using the "hessian_to_restart_geometry" keyword.
  #
  trust_radius             0.0122099308
  hessian_block                1       1           6.194363          -0.381017          -2.341952          -0.381017           7.29777
  hessian_block                1       2          -0.524201           1.455701           0.367469          -0.316279           1.33713
  hessian_block                1       3          -0.809785           1.974903           0.526286           0.097116          -0.39861
  hessian_block                1       4           0.506237           0.222963          -0.065633           0.089789          -0.51636
  hessian_block                1       5           0.304449          -1.124133          -0.412765          -0.850537           1.33769
  hessian_block                1       6          -1.063187          -1.457080           0.120877           1.266268          -1.95557
  hessian_block                1       7          -0.724674           1.027339           0.478207           0.247240          -0.07088
  hessian_block                1       8           0.124169          -1.168458           0.094803          -0.087917          -2.32327
  hessian_block                1       9          -0.134423           0.021564           0.177189           0.141721          -1.47132
  hessian_block                1      10          -3.153095           2.486004           1.612675          -0.904453           1.31576
  hessian_block                1      11           0.574096          -1.604479          -0.549074           0.694267          -0.60219
  hessian_block                1      12           0.271962          -1.453305          -0.008082           0.003802          -2.30310
  hessian_block                2       2           7.120336           1.577650           3.112970           1.577650           8.79638
  hessian_block                2       3           2.454245           2.726910           1.670684          -0.719094          -0.88139
  hessian_block                2       4           0.212191           0.609452           0.156078          -0.527495           0.66804
  hessian_block                2       5          -2.820220          -0.814060          -1.536567           1.607893           0.57093
  hessian_block                2       6          -2.055997          -1.823930          -1.016687          -1.985086          -2.91443
  hessian_block                2       7           0.780188           0.225150           0.241495          -0.729296          -1.90799
  hessian_block                2       8          -0.930304          -1.402963          -0.826490          -0.401889          -1.02952
  hessian_block                2       9          -2.021616           0.378476          -0.945415          -0.578745          -2.18066
  hessian_block                2      10           2.273397           1.956366           1.357759           2.123491           3.26219
  hessian_block                2      11          -1.705926          -1.968544          -1.029125          -1.352533          -4.33471
  hessian_block                2      12          -1.216182          -1.148228          -0.749222          -0.470598           0.26106
  hessian_block                3       3           8.928581          -0.991015           3.822035          -0.991015           6.39161
  hessian_block                3       4           0.341465          -0.267909          -0.038483          -0.300518           0.08485
  hessian_block                3       5          -1.687648           0.338615          -0.959458           1.432525           0.14801
  hessian_block                3       6          -2.983067           0.901316          -1.856515          -2.564774          -1.23814
  hessian_block                3       7           1.259278          -0.105755           0.916252          -0.201059          -0.01994
  hessian_block                3       8          -3.206047          -0.004308          -1.473302          -1.454565          -0.15407
  hessian_block                3       9          -0.266912           0.346519           0.137690          -1.768114           0.16345
  hessian_block                3      10           3.102982          -0.001285           1.749506           4.009232          -2.77650
  hessian_block                3      11          -2.100296           0.409609          -1.185636          -1.905404           0.52295
  hessian_block                3      12          -3.466884          -0.003808          -1.626565          -0.958118          -0.19519
  hessian_block                4       4           5.942589           0.148308          -1.963121           0.148308           7.01696
  hessian_block                4       5          -0.487256           0.653638           0.086864           0.112474          -2.33601
  hessian_block                4       6          -0.037768           0.550808          -0.091855          -0.218210          -0.40925
  hessian_block                4       7          -1.988554          -0.928495           0.813210          -0.181278          -0.15875
  hessian_block                4       8          -0.270913          -0.191267          -0.309016           0.041217          -0.54099
  hessian_block                4       9          -0.267741           0.650460           0.145122           0.109690          -2.20961
  hessian_block                4      10          -0.434431          -0.480623           0.137735          -0.205244           0.82807
  hessian_block                4      11          -1.843595           0.011709           0.708874          -0.803353          -1.36328
  hessian_block                4      12          -0.106314           0.323684          -0.172565           0.431891           0.58337
  hessian_block                5       5           5.855486          -1.187067          -1.013158          -1.187067           7.44883
  hessian_block                5       6           1.348502          -1.978909          -0.099428           1.384410          -1.91242
  hessian_block                5       7          -0.931064           1.930219          -0.172286          -0.715395          -0.19658
  hessian_block                5       8           0.613678          -0.525844           0.561498           0.846444          -0.51809
  hessian_block                5       9          -1.357658          -0.376801           1.694230           0.422051          -3.02810
  hessian_block                5      10          -1.399124           2.367694           0.073024          -1.299917           1.95385
  hessian_block                5      11           1.308539          -2.089327           0.306916           1.636966          -0.77950
  hessian_block                5      12           0.818227          -0.442322          -0.272278          -0.141553          -1.04157
  hessian_block                6       6           7.741673           2.693310           5.797599           2.693310           8.41814
  hessian_block                6       7          -1.153048          -1.404819          -2.280181           0.801076           0.58554
  hessian_block                6       8           0.824178           1.453161           1.987034           0.814795           1.06165
  hessian_block                6       9           0.061674           0.111488          -0.038507           1.871975           2.59281
  hessian_block                6      10          -4.379013          -4.059300          -7.602326          -3.626983          -5.06366
  hessian_block                6      11           1.832153           2.104889           2.975681           0.555791           2.07025
  hessian_block                6      12           1.429811           1.218664           2.213993           0.697828           0.41210
  hessian_block                7       7           5.987916           0.296416           0.995900           0.296416           6.15044
  hessian_block                7       8          -0.567715           0.021355           0.183415          -0.316594          -0.26818
  hessian_block                7       9           0.376090           0.588077          -0.228851          -1.472582          -0.13702
  hessian_block                7      10           1.585696          -1.013230          -0.515614           1.567470          -0.81965
  hessian_block                7      11          -2.663171           0.737545          -1.524400          -0.035770          -2.10612
  hessian_block                7      12          -0.395029           0.148547           0.603593          -0.782577           0.59618
  hessian_block                8       8           5.191313           0.434269          -1.486604           0.434269           5.92777
  hessian_block                8       9           0.222212          -0.503273          -0.199799           0.934745           0.71648
  hessian_block                8      10          -1.039869          -1.064995           1.651604          -1.800865          -1.46206
  hessian_block                8      11           0.931838           0.328656          -1.112603           1.183453           1.65299
  hessian_block                8      12          -0.326628           1.363856           1.177584           1.066719          -1.41567
  hessian_block                9       9           5.026018          -0.527506          -0.777345          -0.527506           7.63772
  hessian_block                9      10          -0.009583          -1.644171          -0.184854          -0.179093          -2.19672
  hessian_block                9      11          -0.188288           2.042927          -0.156926          -0.701713           1.55408
  hessian_block                9      12           0.126138           0.468012           0.632070           0.191801           0.20592
  hessian_block               10      10           8.720426           3.715224           5.001295           3.715224          10.31605
  hessian_block               10      11          -2.015452          -2.000032          -1.779904          -1.177261          -3.07202
  hessian_block               10      12          -1.686023          -1.398829          -1.581141          -1.084421          -0.63827
  hessian_block               11      11           6.663656           1.250767           1.086657           1.250767           8.72762
  hessian_block               11      12           0.772356           0.654790          -0.271215           0.776281          -0.62304
  hessian_block               12      12           5.344475           0.268942           0.053826           0.268942           5.80523
  hessian_block_lv             1       1          23.693971          -3.403883           5.308483          -3.403883          23.78458
  hessian_block_lv_atom        1       1          -0.076323          -0.047091          -0.344150           0.010304           0.16656
  hessian_block_lv_atom        1       2          -0.030125          -0.022970           0.573444           0.820377           0.79838
  hessian_block_lv_atom        1       3           0.149205           0.226962           0.909422           0.064656           0.20081
  hessian_block_lv_atom        1       4           0.014487           0.051876          -0.041617           0.804657           0.75007
  hessian_block_lv_atom        1       5          -0.067134          -0.160048          -0.193772           0.614578           0.79627
  hessian_block_lv_atom        1       6          -0.469730          -1.046592          -1.276699          -1.202926          -1.41648
  hessian_block_lv_atom        1       7          -0.141620          -0.156450           0.728042          -0.868498          -1.05773
  hessian_block_lv_atom        1       8          -0.301271          -0.199846          -0.678205          -0.197893          -0.26810
  hessian_block_lv_atom        1       9           0.130322           0.231070          -0.186126          -1.151785          -1.30115
  hessian_block_lv_atom        1      10           0.577301           1.202465           1.545289           1.415659           1.45265
  hessian_block_lv_atom        1      11           0.096868           0.062882          -0.878541          -0.221426           0.02063
  hessian_block_lv_atom        1      12           0.118019          -0.142257          -0.157087          -0.087703          -0.14190
  symmetry_n_params 39 3 36
  symmetry_params a1 b2 c3 x0 x1 x2 x3 x4 x5 x6 x7 x8 x9 x10 x11 x12 x13 x14 x15 x16 x17 x18 x19 x20 x21 x22 x23 x24 x25 x26 x27 x28 x
  symmetry_lv a1 , 0 , 0
  symmetry_lv 0 , b2 , 0
  symmetry_lv 0 , 0 , c3
  symmetry_frac x0 , x1 , x2
  symmetry_frac x3 , x4 , x5
  symmetry_frac x6 , x7 , x8
  symmetry_frac x9 , x10 , x11
  symmetry_frac x12 , x13 , x14
  symmetry_frac x15 , x16 , x17
  symmetry_frac x18 , x19 , x20
  symmetry_frac x21 , x22 , x23
  symmetry_frac x24 , x25 , x26
  symmetry_frac x27 , x28 , x29
  symmetry_frac x30 , x31 , x32
  symmetry_frac x33 , x34 , x35
  
  -----------------------------------------------------------------------
  Completed first pass over input file geometry.in .
  -----------------------------------------------------------------------
  

  Basic array size parameters:
  | Number of species                 :        2
  | Number of atoms                   :       12
  | Number of lattice vectors         :        3
  | Max. basis fn. angular momentum   :        4
  | Max. atomic/ionic basis occupied n:        5
  | Max. number of basis fn. types    :        3
  | Max. radial fns per species/type  :       10
  | Max. logarithmic grid size        :     1444
  | Max. radial integration grid size :      125
  | Max. angular integration grid size:      434
  | Max. angular grid division number :        8
  | Radial grid for Hartree potential :     1444
  | Number of spin channels           :        1

------------------------------------------------------------
          Reading file control.in.
------------------------------------------------------------
  XC: Using PBE gradient-corrected functionals.
  Using libMBD for calculating MBD and TS energies
  Spin treatment: No spin polarisation.
  Found k-point grid:        17        17        14
  Scalar relativistic treatment of kinetic energy: on-site free-atom approximation to ZORA.
  Max energy increase before discarding BFGS move:   0.100000E-01 eV
  Assuming qualitatively harmonic for steps shorter than   0.150000E-01 A.
  S.C.F. convergence parameters will be adjusted in iteration number     3 of each new s.c.f. cycle.
  Geometry relaxation: Modified BFGS - TRM (trust radius method) for lattice optimization.
  Convergence accuracy for geometry relaxation: Maximum force <   0.100000E-01 eV/A.
 
  Reading configuration options for species Pd                  .
  | Found nuclear charge :  46.0000
  | Found atomic mass :    106.420000000000      amu
  | Found l_max for Hartree potential  :   6
  | Found cutoff potl. onset [A], width [A], scale factor :    4.00000    2.00000    1.00000
  | Threshold for basis-dependent cutoff potential is   0.100000E-03
  | Found data for basic radial integration grid :    62 points, outermost radius =    7.000 A
  | Found multiplier for basic radial grid :   2
  | Found angular grid specification: user-specified.
  | Specified grid contains     6 separate shells.
  | Check grid settings after all constraints further below.
  | Found free-atom valence shell :  5 s   1.000
  | Found free-atom valence shell :  4 p   6.000
  | Found free-atom valence shell :  4 d   9.000
  | Found free-ion valence shell :  5 s   0.000
  | Found free-ion valence shell :  4 p   6.000
  | Found free-ion valence shell :  4 d   8.000
  | Found ionic basis function :  5 p , default cutoff radius.
  | Found hydrogenic basis function :  4 f   8.000
  | Found hydrogenic basis function :  5 g  10.000
  | Found hydrogenic basis function :  3 s   2.600
  | Found hydrogenic basis function :  3 d   2.500
  Species Pd                  : Missing cutoff potential type.
  Defaulting to exp(1/x)/(1-x)^2 type cutoff potential.
  Species Pd: No 'logarithmic' tag. Using default grid for free atom:
  | Default logarithmic grid data [bohr] : 0.1000E-03 0.1000E+03 0.1012E+01
  | Will include ionic basis functions of  2.0-fold positive Pd                   ion.
  Species Pd: On-site basis accuracy parameter (for Gram-Schmidt orthonormalisation) not specified.
  Using default value basis_acc =  0.1000000E-03.
  Species Pd                  : Using default innermost maximum threshold i_radial=  2 for radial functions.
  Species Pd                  : Default cutoff onset for free atom density etc. : 0.40000000E+01 AA.
  Species Pd                  : Basic radial grid will be enhanced according to radial_multiplier =   2, to contain   125 grid points.
 
  Reading configuration options for species Se                  .
  | Found nuclear charge :  34.0000
  | Found atomic mass :    78.9600000000000      amu
  | Found l_max for Hartree potential  :   6
  | Found cutoff potl. onset [A], width [A], scale factor :    4.00000    2.00000    1.00000
  | Threshold for basis-dependent cutoff potential is   0.100000E-03
  | Found data for basic radial integration grid :    55 points, outermost radius =    7.000 A
  | Found multiplier for basic radial grid :   2
  | Found angular grid specification: user-specified.
  | Specified grid contains     5 separate shells.
  | Check grid settings after all constraints further below.
  | Found free-atom valence shell :  4 s   2.000
  | Found free-atom valence shell :  4 p   4.000
  | Found free-atom valence shell :  3 d  10.000
  | Found free-ion valence shell :  4 s   1.000
  | Found free-ion valence shell :  4 p   3.000
  | Found free-ion valence shell :  3 d  10.000
  | Found hydrogenic basis function :  3 d   4.300
  | Found hydrogenic basis function :  2 p   1.600
  | Found hydrogenic basis function :  4 f   7.200
  | Found ionic basis function :  4 s , default cutoff radius.
  Species Se                  : Missing cutoff potential type.
  Defaulting to exp(1/x)/(1-x)^2 type cutoff potential.
  Species Se: No 'logarithmic' tag. Using default grid for free atom:
  | Default logarithmic grid data [bohr] : 0.1000E-03 0.1000E+03 0.1012E+01
  | Will include ionic basis functions of  2.0-fold positive Se                   ion.
  Species Se: On-site basis accuracy parameter (for Gram-Schmidt orthonormalisation) not specified.
  Using default value basis_acc =  0.1000000E-03.
  Species Se                  : Using default innermost maximum threshold i_radial=  2 for radial functions.
  Species Se                  : Default cutoff onset for free atom density etc. : 0.40000000E+01 AA.
  Species Se                  : Basic radial grid will be enhanced according to radial_multiplier =   2, to contain   111 grid points.
 
  Finished reading input file 'control.in'. Consistency checks are next.
 
  MPI_IN_PLACE appears to work with this MPI implementation.
  | Keeping use_mpi_in_place .true. (see manual).
  Target number of points in a grid batch is not set. Defaulting to  100
  Method for grid partitioning is not set. Defaulting to parallel hash+maxmin partitioning.
  Batch size limit is not set. Defaulting to    200
  By default, will store active basis functions for each batch.
  If in need of memory, prune_basis_once .false. can be used to disable this option.
  communication_type for Hartree potential was not specified.
  Defaulting to calc_hartree .
  Defaulting to Pulay charge density mixer.
  Pulay mixer: Number of relevant iterations not set.
  Defaulting to    8 iterations.
  Pulay mixer: Number of initial linear mixing iterations not set.
  Defaulting to    0 iterations.
  Work space size for distributed Hartree potential not set.
  Defaulting to   0.200000E+03 MB.
  Mixing parameter for charge density mixing has not been set.
  Using default: charge_mix_param =     0.0500.
  The mixing parameter will be adjusted in iteration number     3 of each s.c.f. cycle (i.e., each geometry step).
  Algorithm-dependent basis array size parameters:
  | n_max_pulay                         :        8
  Maximum number of self-consistency iterations not provided.
  Presetting  1000 iterations.
  Presetting      1001 iterations before the initial mixing cycle
  is restarted anyway using the sc_init_iter criterion / keyword.
  Presetting a factor      1.000 between actual scf density residual
  and density convergence criterion sc_accuracy_rho below which sc_init_iter
  takes no effect.
 * No s.c.f. convergence criteria (sc_accuracy_*) were provided in control.in.
 * The run will proceed with a reasonable default guess, but please check whether.
 * the s.c.f. cycles seem to take too much or too little time.
  No maximum number of relaxation steps, defaulting to     1000
  Using explicit Hessian from geometry.in.
  Maximum energy tolerance by which TRM/BFGS trajectory may increase over multiple steps:   0.300000E-02
  No trust radius initializer. Defaulting to   0.200000E+00 A.
  Unit cell relaxation: Unit cell will be relaxed fully.
  Unit cell relaxation: Analytical stress will be used.
  Analytical stress will be computed.
  Analytical stress calculation: Only the upper triangle is calculated.
                                 Final output is symmetrized.
  Analytical stress calculation: scf convergence accuracy of stress not set.
                                 Analytical stress self-consistency will not be checked explicitly.
                                 Be sure to set other criteria like sc_accuracy_rho tight enough.
 * Notice: The s.c.f. convergence criterion sc_accuracy_rho was not provided.
 * We used to stop in this case, and ask the user to provide reasonable
 * scf convergence criteria. However, this led some users to employ criteria
 * that led to extremely long run times, e.g., for simple relaxation.
 * We now preset a default value for sc_accuracy_rho if it is not set.
 * You may still wish to check if this setting is too tight or too loose for your needs.
 * Based on n_atoms, FHI-aims chose sc_accuracy_rho =  0.141421E-05 .
  Force calculation: scf convergence accuracy of forces not set.
  Defaulting to 'sc_accuracy_forces not_checked'.
  Handling of forces: Unphysical translation and rotation will be removed from forces.
  No accuracy limit for integral partition fn. given. Defaulting to  0.1000E-14.
  No threshold value for u(r) in integrations given. Defaulting to  0.1000E-05.
  No occupation type (smearing scheme) given. Defaulting to Gaussian broadening, width =  0.1000E-01 eV.
  The width will be adjusted in iteration number     3 of each s.c.f. cycle (i.e., each geometry step).
  S.C.F. convergence parameters will be adjusted in iteration number     3 of the first full s.c.f. cycle only.
  No accuracy for occupation numbers given. Defaulting to  0.1000E-12.
  No threshold value for occupation numbers given. Defaulting to  0.0000E+00.
  No accuracy for fermi level given. Defaulting to  0.1000E-19.
  Maximum # of iterations to find E_F not set. Defaulting to  200.
  Preferred method for the eigenvalue solver ('KS_method') not specified in 'control.in'.
  Defaulting to serial version, LAPACK (via ELSI), since more k-points than CPUs available.
  Will not use alltoall communication since running on < 1024 CPUs.
  Threshold for basis singularities not set.
  Default threshold for basis singularities:  0.1000E-04
  partition_type (choice of integration weights) for integrals was not specified.
  | Using a version of the partition function of Stratmann and coworkers ('stratmann_sparse').
  | At each grid point, the set of atoms used to build the partition table is smoothly restricted to
  | only those atoms whose free-atom density would be non-zero at that grid point.
  Partitioning for Hartree potential was not defined. Using partition_type for integrals.
  | Adjusted default value of keyword multip_moments_threshold to:       0.10000000E-11
  | This value may affect high angular momentum components of the Hartree potential in periodic systems.
  Angular momentum expansion for Kerker preconditioner not set explicitly.
  | Using default value of   0
  No explicit requirement for turning off preconditioner.
  | By default, it will be turned off when the charge convergence reaches
  | sc_accuracy_rho  =   0.141421E-05
  No special mixing parameter while Kerker preconditioner is on.
  Using default: charge_mix_param =     0.0500.
  No q(lm)/r^(l+1) cutoff set for long-range Hartree potential.
  | Using default value of  0.100000E-09 .
  | Verify using the multipole_threshold keyword.
  Defaulting to new monopole extrapolation.
  Density update method: automatic selection selected.
  Using density matrix based charge density update.
  Using density matrix based charge density update.
  Using packed matrix style: index .
  Geometry relaxation: A file "geometry.in.next_step" is written out by default after each step.
  | This file contains the geometry of the current relaxation step as well as
  | the current Hessian matrix needed to restart the relaxation algorithm.
  | If you do not want part or all of this information, use the keywords
  | "write_restart_geometry" or "hessian_to_restart_geometry" to switch the output off.
  Defaulting to use time-reversal symmetry for k-point grid.
  Charge integration errors on the 3D integration grid will be compensated
  by explicit normalization and distribution of residual charges.
  Use the "compensate_multipole_errors" flag to change this behaviour.
------------------------------------------------------------


------------------------------------------------------------
          Reading geometry description geometry.in.
------------------------------------------------------------
  Input structure read successfully.
  The structure contains       12 atoms,  and a total of        456.000 electrons.

  Input geometry:
  | Unit cell:
  |        5.85113195        0.00000000        0.00000000
  |        0.00000000        5.95733513        0.00000000
  |        0.00000000        0.00000000        7.44913287
  | Atomic structure:
  |       Atom                x [A]            y [A]            z [A]
  |    1: Species Pd            2.93871078        0.01005556        0.01180643
  |    2: Species Pd            0.00981627        0.01001827        3.74226505
  |    3: Species Pd            0.01016406        2.99210362        0.01183652
  |    4: Species Pd            2.93906056        2.99207294        3.74224308
  |    5: Species Se            3.59315731        0.71333607        3.01115270
  |    6: Species Se            5.21337466        5.27110308        6.73932206
  |    7: Species Se            0.66418457        2.28917763        4.47252388
  |    8: Species Se            2.28439946        3.69538044        0.74294158
  |    9: Species Se            2.28455768        5.27116427        4.47253439
  |   10: Species Se            0.66428445        0.71326435        0.74290537
  |   11: Species Se            5.21336588        3.69538014        3.01119635
  |   12: Species Se            3.59321688        2.28902268        6.73925509

  Lattice parameters for 3D lattice (in Angstroms) :     5.851132    5.957335    7.449133
  Angle(s) between unit vectors (in degrees)       :    90.000000   90.000000   90.000000

  | The smallest distance between any two atoms is         2.40089300 AA.
  | The first atom of this pair is atom number                      6 .
  | The second atom of this pair is atom number                    10 .
  | Wigner-Seitz cell of the first atom image           0     0     0 .
  | (The Wigner-Seitz cell of the second atom is 0 0 0  by definition.)

  Symmetry information by spglib:
  | Precision set to  0.1E-04
  | Number of Operations  : 1
  | Space group           : 1
  | International         : P1       HY
  | Schoenflies           : C1^1

  Quantities derived from the lattice vectors:
  | Reciprocal lattice vector 1:  1.073841  0.000000  0.000000
  | Reciprocal lattice vector 2:  0.000000  1.054697  0.000000
  | Reciprocal lattice vector 3:  0.000000  0.000000  0.843479
  | Unit cell volume                               :   0.259656E+03  A^3

  Range separation radius for Ewald summation (hartree_convergence_parameter):      4.00090639 bohr.

  Fractional coordinates:
                         L1                L2                L3
       atom_frac         0.50224654        0.00168793        0.00158494  Pd
       atom_frac         0.00167767        0.00168167        0.50237593  Pd
       atom_frac         0.00173711        0.50225538        0.00158898  Pd
       atom_frac         0.50230632        0.50225023        0.50237298  Pd
       atom_frac         0.61409610        0.11974080        0.40422862  Se
       atom_frac         0.89100275        0.88480889        0.90471229  Se
       atom_frac         0.11351386        0.38426202        0.60040866  Se
       atom_frac         0.39042009        0.62030763        0.09973531  Se
       atom_frac         0.39044713        0.88481916        0.60041007  Se
       atom_frac         0.11353093        0.11972876        0.09973045  Se
       atom_frac         0.89100125        0.62030758        0.40423448  Se
       atom_frac         0.61410628        0.38423601        0.90470330  Se

  Number of empty states per atom not set in control.in - providing a guess from actual geometry.
  | Total number of empty states used during s.c.f. cycle:       66
  If you use a very high smearing, use empty_states (per atom!) in control.in to increase this value.

  Structure-dependent array size parameters: 
  | Maximum number of distinct radial functions  :       27
  | Maximum number of basis functions            :      468
  | Number of Kohn-Sham states (occupied + empty):      294
------------------------------------------------------------

------------------------------------------------------------
          Preparing all fixed parts of the calculation.
------------------------------------------------------------
  Determining machine precision:
    2.225073858507201E-308
  Setting up grids for atomic and cluster calculations.

  Creating wave function, potential, and density for free atoms.

  Species: Pd

  List of occupied orbitals and eigenvalues:
    n    l              occ      energy [Ha]    energy [eV]
    1    0           2.0000      -913.269104    -24851.3168
    2    0           2.0000      -130.434372     -3549.2998
    3    0           2.0000       -23.521804      -640.0609
    4    0           2.0000        -3.256918       -88.6253
    5    0           1.0000        -0.157260        -4.2793
    2    1           6.0000      -116.910756     -3181.3035
    3    1           6.0000       -19.103344      -519.8284
    4    1           6.0000        -1.998052       -54.3697
    3    2          10.0000       -12.098182      -329.2083
    4    2           9.0000        -0.243389        -6.6230


  Species: Se

  List of occupied orbitals and eigenvalues:
    n    l              occ      energy [Ha]    energy [eV]
    1    0           2.0000      -466.337810    -12689.6975
    2    0           2.0000       -59.202598     -1610.9847
    3    0           2.0000        -7.847116      -213.5309
    4    0           2.0000        -0.634372       -17.2621
    2    1           6.0000       -52.061107     -1416.6548
    3    1           6.0000        -5.620941      -152.9536
    4    1           4.0000        -0.238469        -6.4891
    3    2          10.0000        -1.951949       -53.1152

  Creating fixed part of basis set: Ionic, confined, hydrogenic.
 
  Pd                   ion:

  List of free ionic orbitals and eigenvalues:
    n    l      energy [Ha]    energy [eV]
    1    0      -914.099884    -24873.9234
    2    0      -131.248265     -3571.4470
    3    0       -24.332473      -662.1203
    4    0        -4.059276      -110.4585
    2    1      -117.724296     -3203.4411
    3    1       -19.913908      -541.8850
    4    1        -2.795328       -76.0648
    3    2       -12.908733      -351.2645
    4    2        -1.004248       -27.3270


  List of ionic basis orbitals and eigenvalues:
    n    l      energy [Ha]    energy [eV]    outer radius [A]
    5    1        -0.516938       -14.0666       5.427025

 
  Pd                   hydrogenic:
 
  List of hydrogenic basis orbitals: 
    n    l      effective z      eigenvalue [eV]  inner max. [A]     outer max. [A]     outer radius [A]   
    4    3         8.000000       -54.4226           1.054686           1.054686           4.629581
    5    4        10.000000       -54.4226           1.330451           1.330451           5.043202
    3    0         2.600000        -9.8948           0.150992           2.606197           5.493778
    3    2         2.500000        -9.3396           1.873517           1.873517           5.493778
 
 
  Se                   ion:

  List of free ionic orbitals and eigenvalues:
    n    l      energy [Ha]    energy [eV]
    1    0      -467.261007    -12714.8189
    2    0       -60.104893     -1635.5374
    3    0        -8.743714      -237.9286
    4    0        -1.414053       -38.4783
    2    1       -52.964156     -1441.2280
    3    1        -6.516916      -177.3343
    4    1        -0.961869       -26.1738
    3    2        -2.844511       -77.4031


  List of ionic basis orbitals and eigenvalues:
    n    l      energy [Ha]    energy [eV]    outer radius [A]
    4    0        -1.414046       -38.4782       4.083166

 
  Se                   hydrogenic:
 
  List of hydrogenic basis orbitals: 
    n    l      effective z      eigenvalue [eV]  inner max. [A]     outer max. [A]     outer radius [A]   
    3    2         4.300000       -27.9518           1.103845           1.103845           5.278265
    2    1         1.600000        -8.6828           1.326010           1.326010           5.475439
    4    3         7.200000       -44.0822           1.173422           1.173422           4.965294
 

  Adding cutoff potential to free-atom effective potential.
  Creating atomic-like basis functions for current effective potential.

  Species Pd                  :

  List of atomic basis orbitals and eigenvalues:
    n    l      energy [Ha]    energy [eV]    outer radius [A]
    1    0      -913.269104    -24851.3168       0.223280
    2    0      -130.434372     -3549.2998       0.615909
    3    0       -23.521804      -640.0609       1.414312
    4    0        -3.256918       -88.6253       3.581357
    5    0        -0.157260        -4.2793       5.427025
    2    1      -116.910756     -3181.3035       0.631154
    3    1       -19.103344      -519.8284       1.540671
    4    1        -1.998052       -54.3697       4.408641
    3    2       -12.098182      -329.2083       1.806051
    4    2        -0.243389        -6.6230       5.361084


  Species Se                  :

  List of atomic basis orbitals and eigenvalues:
    n    l      energy [Ha]    energy [eV]    outer radius [A]
    1    0      -466.337810    -12689.6975       0.309561
    2    0       -59.202598     -1610.9847       0.885812
    3    0        -7.847116      -213.5309       2.355489
    4    0        -0.634372       -17.2621       5.214131
    2    1       -52.061107     -1416.6548       0.907737
    3    1        -5.620941      -152.9536       2.694529
    4    1        -0.238469        -6.4891       5.408909
    3    2        -1.951949       -53.1152       4.083166

  Assembling full basis from fixed parts.
  | Species Pd :   atomic orbital   1 s accepted.
  | Species Pd :   atomic orbital   2 s accepted.
  | Species Pd :   atomic orbital   3 s accepted.
  | Species Pd :   atomic orbital   4 s accepted.
  | Species Pd :   atomic orbital   5 s accepted.
  | Species Pd :    hydro orbital   3 s accepted.
  | Species Pd :   atomic orbital   2 p accepted.
  | Species Pd :   atomic orbital   3 p accepted.
  | Species Pd :   atomic orbital   4 p accepted.
  | Species Pd :    ionic orbital   5 p accepted.
  | Species Pd :   atomic orbital   3 d accepted.
  | Species Pd :   atomic orbital   4 d accepted.
  | Species Pd :    hydro orbital   3 d accepted.
  | Species Pd :    hydro orbital   4 f accepted.
  | Species Pd :    hydro orbital   5 g accepted.
  | Species Se :   atomic orbital   1 s accepted.
  | Species Se :   atomic orbital   2 s accepted.
  | Species Se :   atomic orbital   3 s accepted.
  | Species Se :    ionic orbital   4 s accepted.
  | Species Se :   atomic orbital   4 s accepted.
  | Species Se :   atomic orbital   2 p accepted.
  | Species Se :   atomic orbital   3 p accepted.
  | Species Se :   atomic orbital   4 p accepted.
  | Species Se :    hydro orbital   2 p accepted.
  | Species Se :   atomic orbital   3 d accepted.
  | Species Se :    hydro orbital   3 d accepted.
  | Species Se :    hydro orbital   4 f accepted.
 
  Basis size parameters after reduction:
  | Total number of radial functions:       27
  | Total number of basis functions :      468
 
  Per-task memory consumption for arrays in subroutine allocate_ext:
  |           9.993344MB.
  Testing on-site integration grid accuracy.
  |  Species  Function  <phi|h_atom|phi> (log., in eV)  <phi|h_atom|phi> (rad., in eV)
           1        1             -24851.3167505682             -24851.3148165635
           1        2              -3549.2998457785              -3549.2998098031
           1        3               -640.0608571327               -640.0608534886
           1        4                -88.6252603131                -88.6252593316
           1        5                 -4.2849374515                 -4.2849400622
           1        6                  4.9432123540                  4.9432188418
           1        7              -3181.3035399559              -3181.3035364574
           1        8               -519.8284281886               -519.8284264063
           1        9                -54.3697495804                -54.3697489261
           1       10                  0.8628369484                  0.8628370487
           1       11               -329.2082917394               -329.2082912864
           1       12                 -6.6230267036                 -6.6230265076
           1       13                  5.4924295291                  5.4924115607
           1       14                 25.0740861942                 25.0740861175
           1       15                 38.8271273823                 38.8271278029
           2       16             -12689.6974611609             -12689.6967666984
           2       17              -1610.9846578580              -1610.9846472470
           2       18               -213.5308789869               -213.5308777267
           2       19                -17.0464428502                -17.0464426496
           2       20                  6.7356859379                  6.7356842047
           2       21              -1416.6548010133              -1416.6548002108
           2       22               -152.9535734377               -152.9535727493
           2       23                 -6.4896265677                 -6.4896303794
           2       24                  5.2703037283                  5.2701679583
           2       25                -53.1152220964                -53.1152219035
           2       26                  7.6186674138                  7.6186665630
           2       27                 23.1072799052                 23.1072803137

  Preparing densities etc. for the partition functions (integrals / Hartree potential).

  Preparations completed.
  max(cpu_time)          :      0.557 s.
  Wall clock time (cpu1) :      0.636 s.
------------------------------------------------------------

------------------------------------------------------------
          Begin self-consistency loop: Initialization.

          Date     :  20200420, Time     :  204646.635
------------------------------------------------------------

  Initializing index lists of integration centers etc. from given atomic structure:
  Mapping all atomic coordinates to central unit cell.

  Initializing the k-points
  Using symmetry for reducing the k-points
  | k-points reduced from:     4046 to     2024
  | Number of k-points                             :      2024
  The eigenvectors in the calculations are COMPLEX.
  | K-points in task   0:        84
  | K-points in task   1:        85
  | K-points in task   2:        85
  | K-points in task   3:        85
  | K-points in task   4:        85
  | K-points in task   5:        85
  | K-points in task   6:        85
  | K-points in task   7:        85
  | K-points in task   8:        85
  | K-points in task   9:        84
  | K-points in task  10:        84
  | K-points in task  11:        84
  | K-points in task  12:        84
  | K-points in task  13:        84
  | K-points in task  14:        84
  | K-points in task  15:        84
  | K-points in task  16:        84
  | K-points in task  17:        84
  | K-points in task  18:        84
  | K-points in task  19:        84
  | K-points in task  20:        84
  | K-points in task  21:        84
  | K-points in task  22:        84
  | K-points in task  23:        84
  | Number of basis functions in the Hamiltonian integrals :      5582
  | Number of basis functions in a single unit cell        :       468
  | Number of centers in hartree potential         :      1318
  | Number of centers in hartree multipole         :       766
  | Number of centers in electron density summation:       595
  | Number of centers in basis integrals           :       640
  | Number of centers in integrals                 :       236
  | Number of centers in hamiltonian               :       596
  | Consuming       2719 KiB for k_phase.
  | Number of super-cells (origin) [n_cells]                     :         567
  | Number of super-cells (after PM_index) [n_cells]             :          86
  | Number of super-cells in hamiltonian [n_cells_in_hamiltonian]:          86
  | Size of matrix packed + index [n_hamiltonian_matrix_size] :     1292352

  Initializing relaxation algorithms.
  | Estimated reciprocal-space cutoff momentum G_max:         2.42756487 bohr^-1 .
  | Reciprocal lattice points for long-range Hartree potential:     418
  Partitioning the integration grid into batches with parallel hashing+maxmin method.
  | Number of batches:     4181
  | Maximal batch size:     110
  | Minimal batch size:      50
  | Average batch size:      91.877
  | Standard deviation of batch sizes:      11.374

  Integration load balanced across    24 MPI tasks.
  Work distribution over tasks is as follows:
  Task     0 has      16042 integration points.
  Task     1 has      16022 integration points.
  Task     2 has      15968 integration points.
  Task     3 has      16033 integration points.
  Task     4 has      16020 integration points.
  Task     5 has      15988 integration points.
  Task     6 has      16027 integration points.
  Task     7 has      15993 integration points.
  Task     8 has      15992 integration points.
  Task     9 has      16007 integration points.
  Task    10 has      16039 integration points.
  Task    11 has      16026 integration points.
  Task    12 has      15986 integration points.
  Task    13 has      15974 integration points.
  Task    14 has      15968 integration points.
  Task    15 has      16024 integration points.
  Task    16 has      16039 integration points.
  Task    17 has      15968 integration points.
  Task    18 has      15987 integration points.
  Task    19 has      16036 integration points.
  Task    20 has      16004 integration points.
  Task    21 has      15993 integration points.
  Task    22 has      16024 integration points.
  Task    23 has      15976 integration points.
  Initializing partition tables, free-atom densities, potentials, etc. across the integration grid (initialize_grid_storage).
  | initialize_grid_storage: Actual outermost partition radius vs. multipole_radius_free
  | (-- VB: in principle, multipole_radius_free should be larger, hence this output)
  | Species        1: Confinement radius =              6.000000000000000 AA, multipole_radius_free =              6.058219618167466 AA.
  | Species        1: outer_partition_radius set to              6.058219618167466 AA .
  | Species        2: Confinement radius =              6.000000000000000 AA, multipole_radius_free =              6.037996416842453 AA.
  | Species        2: outer_partition_radius set to              6.037996416842453 AA .
  | The sparse table of interatomic distances needs       2897.83 kbyte instead of      3276.80 kbyte of memory.
  | Net number of integration points:   384136
  | of which are non-zero points    :   322166
  | Numerical average free-atom electrostatic potential    :    -17.05504669 eV
  Renormalizing the initial density to the exact electron count on the 3D integration grid.
  | Initial density: Formal number of electrons (from input files) :     456.0000000000
  | Integrated number of electrons on 3D grid     :     456.0000480491
  | Charge integration error                      :       0.0000480491
  | Normalization factor for density and gradient :       0.9999998946
  Renormalizing the free-atom superposition density to the exact electron count on the 3D integration grid.
  | Formal number of electrons (from input files) :     456.0000000000
  | Integrated number of electrons on 3D grid     :     456.0000480491
  | Charge integration error                      :       0.0000480491
  | Normalization factor for density and gradient :       0.9999998946
  Obtaining max. number of non-zero basis functions in each batch (get_n_compute_maxes).
  | Maximal number of non-zero basis functions:     1013 in task     0
  | Maximal number of non-zero basis functions:     1017 in task     1
  | Maximal number of non-zero basis functions:     1042 in task     2
  | Maximal number of non-zero basis functions:     1040 in task     3
  | Maximal number of non-zero basis functions:     1039 in task     4
  | Maximal number of non-zero basis functions:     1004 in task     5
  | Maximal number of non-zero basis functions:     1018 in task     6
  | Maximal number of non-zero basis functions:     1016 in task     7
  | Maximal number of non-zero basis functions:     1020 in task     8
  | Maximal number of non-zero basis functions:     1031 in task     9
  | Maximal number of non-zero basis functions:     1015 in task    10
  | Maximal number of non-zero basis functions:     1014 in task    11
  | Maximal number of non-zero basis functions:     1010 in task    12
  | Maximal number of non-zero basis functions:     1011 in task    13
  | Maximal number of non-zero basis functions:     1023 in task    14
  | Maximal number of non-zero basis functions:     1029 in task    15
  | Maximal number of non-zero basis functions:     1026 in task    16
  | Maximal number of non-zero basis functions:     1030 in task    17
  | Maximal number of non-zero basis functions:     1020 in task    18
  | Maximal number of non-zero basis functions:     1008 in task    19
  | Maximal number of non-zero basis functions:     1009 in task    20
  | Maximal number of non-zero basis functions:     1013 in task    21
  | Maximal number of non-zero basis functions:     1059 in task    22
  | Maximal number of non-zero basis functions:     1023 in task    23
  Allocating      176.357 MB for KS_eigenvector_complex
  Integrating Hamiltonian matrix: batch-based integration.
  Time summed over all CPUs for integration: real work       63.624 s, elapsed       64.903 s
  Integrating overlap matrix.
  Time summed over all CPUs for integration: real work       45.987 s, elapsed       47.071 s
  Decreasing sparse matrix size:
  | Tolerance:  0.1000E-12
  Hamiltonian matrix
  | Array has  1117726 nonzero elements out of  1292352 elements
  | Sparsity factor is 0.135
  Overlap matrix
  | Array has  1030822 nonzero elements out of  1292352 elements
  | Sparsity factor is 0.202
  New size of hamiltonian matrix:     1117801

  Updating Kohn-Sham eigenvalues and eigenvectors using ELSI and the (modified) LAPACK eigensolver.
  Singularity check in k-point 24, task 0 (analysis for other k-points/tasks may follow below):
  Overlap matrix is not singular
  | Lowest and highest eigenvalues :  0.6167E-03,  0.7277E+01
  Finished singularity check of overlap matrix
  | Time :     0.076 s
  Starting LAPACK eigensolver
  Finished Cholesky decomposition
  | Time :     0.019 s
  Finished transformation to standard eigenproblem
  | Time :     0.020 s
  Finished solving standard eigenproblem
  | Time :     0.071 s
  Finished back-transformation of eigenvectors
  | Time :     0.009 s

  Obtaining occupation numbers and chemical potential using ELSI.
  | Chemical potential (Fermi level):    -4.63627809 eV
  Writing Kohn-Sham eigenvalues.
  K-point:       1 at    0.000000    0.000000    0.000000 (in units of recip. lattice)

  State    Occupation    Eigenvalue [Ha]    Eigenvalue [eV]
      1       2.00000        -913.279531       -24851.60048
      2       2.00000        -913.279516       -24851.60007
      3       2.00000        -913.279513       -24851.59998
      4       2.00000        -913.279393       -24851.59673
      5       2.00000        -466.350394       -12690.03987
      6       2.00000        -466.350329       -12690.03813
      7       2.00000        -466.350276       -12690.03667
      8       2.00000        -466.350272       -12690.03656
      9       2.00000        -466.350266       -12690.03640
     10       2.00000        -466.350248       -12690.03590
     11       2.00000        -466.350218       -12690.03508
     12       2.00000        -466.350186       -12690.03423
     13       2.00000        -130.445116        -3549.59220
     14       2.00000        -130.445100        -3549.59179
     15       2.00000        -130.445097        -3549.59169
     16       2.00000        -130.444977        -3549.58841
     17       2.00000        -116.921524        -3181.59655
     18       2.00000        -116.921515        -3181.59630
     19       2.00000        -116.921509        -3181.59613
     20       2.00000        -116.921505        -3181.59603
     21       2.00000        -116.921500        -3181.59588
     22       2.00000        -116.921497        -3181.59580
     23       2.00000        -116.921461        -3181.59483
     24       2.00000        -116.921446        -3181.59442
     25       2.00000        -116.921442        -3181.59432
     26       2.00000        -116.921385        -3181.59276
     27       2.00000        -116.921376        -3181.59252
     28       2.00000        -116.921323        -3181.59106
     29       2.00000         -59.215609        -1611.33871
     30       2.00000         -59.215543        -1611.33692
     31       2.00000         -59.215489        -1611.33544
     32       2.00000         -59.215485        -1611.33534
     33       2.00000         -59.215479        -1611.33516
     34       2.00000         -59.215460        -1611.33466
     35       2.00000         -59.215430        -1611.33383
     36       2.00000         -59.215398        -1611.33297
     37       2.00000         -52.074124        -1417.00902
     38       2.00000         -52.074101        -1417.00839
     39       2.00000         -52.074060        -1417.00728
     40       2.00000         -52.074051        -1417.00702
     41       2.00000         -52.074034        -1417.00658
     42       2.00000         -52.074006        -1417.00580
     43       2.00000         -52.074001        -1417.00565
     44       2.00000         -52.073996        -1417.00552
     45       2.00000         -52.073986        -1417.00525
     46       2.00000         -52.073980        -1417.00508
     47       2.00000         -52.073978        -1417.00504
     48       2.00000         -52.073977        -1417.00500
     49       2.00000         -52.073970        -1417.00482
     50       2.00000         -52.073951        -1417.00431
     51       2.00000         -52.073946        -1417.00416
     52       2.00000         -52.073932        -1417.00380
     53       2.00000         -52.073928        -1417.00368
     54       2.00000         -52.073922        -1417.00351
     55       2.00000         -52.073921        -1417.00350
     56       2.00000         -52.073914        -1417.00331
     57       2.00000         -52.073904        -1417.00302
     58       2.00000         -52.073890        -1417.00263
     59       2.00000         -52.073874        -1417.00220
     60       2.00000         -52.073842        -1417.00135
     61       2.00000         -23.533312         -640.37399
     62       2.00000         -23.533296         -640.37355
     63       2.00000         -23.533292         -640.37345
     64       2.00000         -23.533164         -640.36996
     65       2.00000         -19.115108         -520.14855
     66       2.00000         -19.115092         -520.14811
     67       2.00000         -19.115085         -520.14792
     68       2.00000         -19.115020         -520.14616
     69       2.00000         -19.115002         -520.14567
     70       2.00000         -19.115001         -520.14566
     71       2.00000         -19.114956         -520.14442
     72       2.00000         -19.114870         -520.14207
     73       2.00000         -19.114482         -520.13152
     74       2.00000         -19.114467         -520.13112
     75       2.00000         -19.114464         -520.13102
     76       2.00000         -19.114339         -520.12764
     77       2.00000         -12.109915         -329.52755
     78       2.00000         -12.109898         -329.52709
     79       2.00000         -12.109894         -329.52698
     80       2.00000         -12.109879         -329.52658
     81       2.00000         -12.109862         -329.52612
     82       2.00000         -12.109858         -329.52601
     83       2.00000         -12.109763         -329.52343
     84       2.00000         -12.109728         -329.52247
     85       2.00000         -12.109533         -329.51715
     86       2.00000         -12.109518         -329.51674
     87       2.00000         -12.109512         -329.51659
     88       2.00000         -12.109476         -329.51562
     89       2.00000         -12.109460         -329.51518
     90       2.00000         -12.109458         -329.51513
     91       2.00000         -12.109393         -329.51334
     92       2.00000         -12.109387         -329.51318
     93       2.00000         -12.109378         -329.51293
     94       2.00000         -12.109374         -329.51284
     95       2.00000         -12.109331         -329.51167
     96       2.00000         -12.109249         -329.50943
     97       2.00000          -7.861930         -213.93401
     98       2.00000          -7.861853         -213.93189
     99       2.00000          -7.861793         -213.93027
    100       2.00000          -7.861791         -213.93023
    101       2.00000          -7.861781         -213.92994
    102       2.00000          -7.861760         -213.92936
    103       2.00000          -7.861726         -213.92845
    104       2.00000          -7.861691         -213.92750
    105       2.00000          -5.636336         -153.37251
    106       2.00000          -5.636271         -153.37074
    107       2.00000          -5.636208         -153.36902
    108       2.00000          -5.636194         -153.36865
    109       2.00000          -5.636191         -153.36855
    110       2.00000          -5.636169         -153.36797
    111       2.00000          -5.636128         -153.36683
    112       2.00000          -5.636095         -153.36595
    113       2.00000          -5.636093         -153.36591
    114       2.00000          -5.636003         -153.36344
    115       2.00000          -5.635939         -153.36169
    116       2.00000          -5.635928         -153.36141
    117       2.00000          -5.635915         -153.36104
    118       2.00000          -5.635901         -153.36066
    119       2.00000          -5.635838         -153.35896
    120       2.00000          -5.635812         -153.35825
    121       2.00000          -5.635414         -153.34742
    122       2.00000          -5.635338         -153.34535
    123       2.00000          -5.635287         -153.34397
    124       2.00000          -5.635282         -153.34383
    125       2.00000          -5.635273         -153.34358
    126       2.00000          -5.635255         -153.34309
    127       2.00000          -5.635227         -153.34233
    128       2.00000          -5.635191         -153.34136
    129       2.00000          -3.273982          -89.08960
    130       2.00000          -3.273959          -89.08897
    131       2.00000          -3.273954          -89.08881
    132       2.00000          -3.273767          -89.08372
    133       2.00000          -2.020301          -54.97518
    134       2.00000          -2.020279          -54.97460
    135       2.00000          -2.020227          -54.97317
    136       2.00000          -2.020009          -54.96723
    137       2.00000          -2.019286          -54.94757
    138       2.00000          -2.019280          -54.94740
    139       2.00000          -2.019229          -54.94602
    140       2.00000          -2.019011          -54.94008
    141       2.00000          -2.013050          -54.77787
    142       2.00000          -2.013040          -54.77762
    143       2.00000          -2.013034          -54.77744
    144       2.00000          -2.012869          -54.77294
    145       2.00000          -1.969353          -53.58883
    146       2.00000          -1.969239          -53.58572
    147       2.00000          -1.969163          -53.58366
    148       2.00000          -1.969136          -53.58293
    149       2.00000          -1.968278          -53.55957
    150       2.00000          -1.968203          -53.55752
    151       2.00000          -1.968126          -53.55544
    152       2.00000          -1.968107          -53.55490
    153       2.00000          -1.967817          -53.54702
    154       2.00000          -1.967783          -53.54611
    155       2.00000          -1.967707          -53.54404
    156       2.00000          -1.967696          -53.54374
    157       2.00000          -1.967693          -53.54364
    158       2.00000          -1.967643          -53.54228
    159       2.00000          -1.967565          -53.54016
    160       2.00000          -1.967555          -53.53990
    161       2.00000          -1.967399          -53.53566
    162       2.00000          -1.967360          -53.53460
    163       2.00000          -1.967349          -53.53429
    164       2.00000          -1.967303          -53.53303
    165       2.00000          -1.967290          -53.53269
    166       2.00000          -1.967282          -53.53247
    167       2.00000          -1.967264          -53.53198
    168       2.00000          -1.967241          -53.53134
    169       2.00000          -1.967240          -53.53132
    170       2.00000          -1.967224          -53.53089
    171       2.00000          -1.967218          -53.53074
    172       2.00000          -1.967208          -53.53045
    173       2.00000          -1.967168          -53.52937
    174       2.00000          -1.967161          -53.52918
    175       2.00000          -1.967148          -53.52883
    176       2.00000          -1.967121          -53.52810
    177       2.00000          -1.966727          -53.51736
    178       2.00000          -1.966680          -53.51610
    179       2.00000          -1.966618          -53.51440
    180       2.00000          -1.966606          -53.51408
    181       2.00000          -1.966372          -53.50771
    182       2.00000          -1.966333          -53.50666
    183       2.00000          -1.966267          -53.50486
    184       2.00000          -1.966262          -53.50471
    185       2.00000          -0.759567          -20.66886
    186       2.00000          -0.740822          -20.15879
    187       2.00000          -0.720597          -19.60844
    188       2.00000          -0.718838          -19.56058
    189       2.00000          -0.652597          -17.75807
    190       2.00000          -0.640671          -17.43354
    191       2.00000          -0.639270          -17.39542
    192       2.00000          -0.627531          -17.07599
    193       2.00000          -0.418473          -11.38722
    194       2.00000          -0.410695          -11.17557
    195       2.00000          -0.389395          -10.59597
    196       2.00000          -0.376450          -10.24372
    197       2.00000          -0.370683          -10.08680
    198       2.00000          -0.369216          -10.04687
    199       2.00000          -0.366731           -9.97925
    200       2.00000          -0.366173           -9.96408
    201       2.00000          -0.364757           -9.92555
    202       2.00000          -0.363029           -9.87853
    203       2.00000          -0.361250           -9.83010
    204       2.00000          -0.351802           -9.57303
    205       2.00000          -0.341755           -9.29964
    206       2.00000          -0.330795           -9.00138
    207       2.00000          -0.324433           -8.82827
    208       2.00000          -0.316404           -8.60979
    209       2.00000          -0.316254           -8.60570
    210       2.00000          -0.306248           -8.33344
    211       2.00000          -0.288644           -7.85441
    212       2.00000          -0.286393           -7.79314
    213       2.00000          -0.285237           -7.76170
    214       2.00000          -0.280073           -7.62118
    215       2.00000          -0.279112           -7.59503
    216       2.00000          -0.277250           -7.54436
    217       2.00000          -0.276240           -7.51688
    218       2.00000          -0.275708           -7.50240
    219       2.00000          -0.273693           -7.44757
    220       2.00000          -0.270345           -7.35646
    221       2.00000          -0.265362           -7.22086
    222       2.00000          -0.263618           -7.17342
    223       2.00000          -0.263328           -7.16552
    224       2.00000          -0.257757           -7.01392
    225       2.00000          -0.224354           -6.10498
    226       2.00000          -0.215300           -5.85862
    227       2.00000          -0.213039           -5.79710
    228       0.00000          -0.164995           -4.48975
    229       0.00000          -0.152232           -4.14244
    230       0.00000          -0.135273           -3.68097
    231       0.00000          -0.129933           -3.53565
    232       0.00000          -0.128585           -3.49898
    233       0.00000          -0.125722           -3.42106
    234       0.00000          -0.115514           -3.14330
    235       0.00000          -0.114826           -3.12456
    236       0.00000          -0.082002           -2.23139
    237       0.00000          -0.037428           -1.01848
    238       0.00000          -0.030365           -0.82628
    239       0.00000          -0.003105           -0.08448
    240       0.00000           0.021297            0.57951
    241       0.00000           0.025478            0.69329
    242       0.00000           0.026813            0.72962
    243       0.00000           0.057091            1.55352
    244       0.00000           0.089422            2.43331
    245       0.00000           0.102657            2.79344
    246       0.00000           0.111303            3.02871
    247       0.00000           0.118849            3.23406
    248       0.00000           0.122551            3.33478
    249       0.00000           0.125244            3.40807
    250       0.00000           0.125699            3.42044
    251       0.00000           0.137243            3.73457
    252       0.00000           0.151520            4.12307
    253       0.00000           0.160509            4.36766
    254       0.00000           0.171303            4.66139
    255       0.00000           0.176806            4.81113
    256       0.00000           0.189423            5.15446
    257       0.00000           0.191773            5.21841
    258       0.00000           0.198271            5.39522
    259       0.00000           0.219937            5.98479
    260       0.00000           0.231510            6.29972
    261       0.00000           0.247709            6.74050
    262       0.00000           0.257739            7.01342
    263       0.00000           0.267082            7.26768
    264       0.00000           0.280564            7.63454
    265       0.00000           0.280978            7.64580
[...]
  |                x                y                z                |
  |                                                                   |
  |  x        -0.00016879       0.00000110       0.00003508           |
  |  y         0.00000110       0.00004448      -0.00000568           |
  |  z         0.00003508      -0.00000568      -0.00007079           |
  |                                                                   |
  |  Pressure:       0.00006503   [eV/A**3]                           |
  |                                                                   |
  +-------------------------------------------------------------------+

 * Warning: Stress tensor is anisotropic. Be aware that pressure is an isotropic quantity.


  Leaving Libmbd.

  Timings for VdW correction (Tkatchenko-Scheffler 2009 or later):
  | CPU time:       19.056 s, Wall clock time:       19.059 s.
  Removing unitary transformations (pure translations, rotations) from forces on atoms.
  Atomic forces before filtering:
  | Net force on center of mass :  -0.156643E-04  0.977919E-04  0.414020E-04 eV/A
  Atomic forces after filtering:
  | Net force on center of mass :   0.000000E+00 -0.348449E-18 -0.696899E-18 eV/A

  Energy and forces in a compact form:
  | Total energy uncorrected      :         -0.108791111536736E+07 eV
  | Total energy corrected        :         -0.108791111641275E+07 eV  <-- do not rely on this value for anything but (periodic) metals
  | Electronic free energy        :         -0.108791111745815E+07 eV
  Total atomic forces (unitary forces cleaned) [eV/Ang]:
  |    1          0.445692499151724E-04         -0.291704535253566E-02          0.154503895456958E-02
  |    2          0.205888533206560E-02          0.141450473818685E-03         -0.357856123803042E-03
  |    3         -0.115862066849796E-02         -0.191315824046294E-02          0.206642068722238E-02
  |    4          0.301140216948551E-03         -0.500705850948551E-03         -0.122461220980524E-02
  |    5          0.600844092693649E-03         -0.607508850971410E-03         -0.254435874459131E-02
  |    6          0.259962009669342E-02          0.199376603503581E-02         -0.424839662904218E-02
  |    7         -0.286390417390641E-02          0.162680985626577E-02          0.235698344293259E-02
  |    8         -0.350126101142495E-02         -0.108980158950268E-02          0.320470077310023E-02
  |    9         -0.107646448586931E-02          0.125291647559046E-02          0.262986797373496E-02
  |   10         -0.470416448973616E-03          0.209876957904611E-02          0.247021901042597E-02
  |   11          0.804226541450108E-03         -0.203697357365621E-02         -0.184457930107544E-02
  |   12          0.266138125890573E-02          0.195148103832063E-02         -0.405342783366851E-02

  ------------------------------------ 
  Start decomposition of the XC Energy 
  ------------------------------------ 
  X and C from original XC functional choice 
  Hartree-Fock Energy :          0.000000000 Ha              0.000000000 eV
  X Energy            :      -1261.088511890 Ha         -34315.964385564 eV
  C Energy            :        -23.236796824 Ha           -632.305412922 eV
  Total XC Energy     :      -1284.325308714 Ha         -34948.269798486 eV
  ------------------------------------ 
  LDA X and C from self-consistent density 
  X Energy LDA        :      -1197.518241354 Ha         -32586.129311237 eV
  C Energy LDA        :        -42.068218696 Ha          -1144.734474176 eV
  ------------------------------------ 
  End decomposition of the XC Energy 
  ------------------------------------ 

------------------------------------------------------------
  Relaxation / MD: End force evaluation.       :  max(cpu_time)    wall_clock(cpu1)
  | Time for this force evaluation             :      515.485 s         516.073 s

------------------------------------------------------------
  Geometry optimization: Attempting to predict improved coordinates.

  +-------------------------------------------------------------------+
  | Generalized derivatives on lattice vectors [eV/A]                 |
  +-------------------------------------------------------------------+
  |lattice_vector      -0.00755384       0.00004910       0.00157010  |
  |lattice_vector       0.00004820       0.00195415      -0.00024933  |
  |lattice_vector       0.00122059      -0.00019745      -0.00246260  |
  +-------------------------------------------------------------------+
  | Forces on lattice vectors cleaned from atomic contributions [eV/A]|
  +-------------------------------------------------------------------+
  |lattice_vector       0.00755384      -0.00004910      -0.00157010  |
  |lattice_vector      -0.00004820      -0.00195415       0.00024933  |
  |lattice_vector      -0.00122059       0.00019745       0.00246260  |
  +-------------------------------------------------------------------+
  Symmetrized total atomic cartesian forces [eV/Ang]:
  |   1     0.4456924992E-04    -0.2917045353E-02     0.1545038955E-02
  |   2     0.2058885332E-02     0.1414504738E-03    -0.3578561238E-03
  |   3    -0.1158620668E-02    -0.1913158240E-02     0.2066420687E-02
  |   4     0.3011402169E-03    -0.5007058509E-03    -0.1224612210E-02
  |   5     0.6008440927E-03    -0.6075088510E-03    -0.2544358745E-02
  |   6     0.2599620097E-02     0.1993766035E-02    -0.4248396629E-02
  |   7    -0.2863904174E-02     0.1626809856E-02     0.2356983443E-02
  |   8    -0.3501261011E-02    -0.1089801590E-02     0.3204700773E-02
  |   9    -0.1076464486E-02     0.1252916476E-02     0.2629867974E-02
  |  10    -0.4704164490E-03     0.2098769579E-02     0.2470219010E-02
  |  11     0.8042265415E-03    -0.2036973574E-02    -0.1844579301E-02
  |  12     0.2661381259E-02     0.1951481038E-02    -0.4053427834E-02
  +-------------------------------------------------------------------+
  | Symmetrized forces on lattice vectors cleaned from symmetrized
  | atomic contributions [eV/A]|
  +-------------------------------------------------------------------+
  |lattice_vector       0.00755384       0.00000000       0.00000000  |
  |lattice_vector       0.00000000      -0.00195415       0.00000000  |
  |lattice_vector       0.00000000       0.00000000       0.00246260  |
  +-------------------------------------------------------------------+
  Removing unitary transformations (pure translations, rotations) from forces on atoms.
  Atomic forces before filtering:
  | Net force on center of mass :  -0.696899E-18 -0.348449E-18 -0.139380E-17 eV/A
  Atomic forces after filtering:
  | Net force on center of mass :  -0.696899E-18 -0.348449E-18  0.139380E-17 eV/A
  Net remaining forces (excluding translations, rotations) in present geometry:
  || Forces on atoms   || =   0.424840E-02 eV/A.
  || Forces on lattice || =   0.755384E-02 eV/A^3.
  Maximum force component is  0.755384E-02 eV/A.
  Present geometry is converged.

  Symmetry-reduced parameters:
  | atomic   1          0.502123031434476E+00
  | atomic   2          0.219477411558343E-02
  | atomic   3          0.204868516160012E-02
  | atomic   4          0.211139731056672E-02
  | atomic   5          0.216765079565762E-02
  | atomic   6          0.502292007009070E+00
  | atomic   7          0.225003222074102E-02
  | atomic   8          0.502149348797720E+00
  | atomic   9          0.202266852141631E-02
  | atomic  10          0.502217564943091E+00
  | atomic  11          0.502176768532327E+00
  | atomic  12          0.502304718876496E+00
  | atomic  13          0.614287401552174E+00
  | atomic  14          0.120571257500749E+00
  | atomic  15          0.405550959621525E+00
  | atomic  16          0.889976128469835E+00
  | atomic  17          0.883761569776949E+00
  | atomic  18          0.905481776293958E+00
  | atomic  19          0.114354114989469E+00
  | atomic  20          0.383798585452652E+00
  | atomic  21          0.598886476388535E+00
  | atomic  22          0.390104310012093E+00
  | atomic  23          0.620576219880212E+00
  | atomic  24          0.987929361788979E-01
  | atomic  25          0.390041162725935E+00
  | atomic  26          0.883811999404688E+00
  | atomic  27          0.598894004243922E+00
  | atomic  28          0.114292521033622E+00
  | atomic  29          0.120504438906916E+00
  | atomic  30          0.987905624261900E-01
  | atomic  31          0.890036907207665E+00
  | atomic  32          0.620577242243351E+00
  | atomic  33          0.405555142987861E+00
  | atomic  34          0.614291458573757E+00
  | atomic  35          0.383796195803564E+00
  | atomic  36          0.905466071279155E+00
  | lattice  1          0.584390345626265E+01
  | lattice  2          0.595316646971729E+01
  | lattice  3          0.751727252930627E+01
  Symmetry-reduced forces:
  | atomic   1          0.260458393622310E-03
  | atomic   2         -0.173656565833600E-01
  | atomic   3          0.116144788898940E-01
  | atomic   4          0.120319271081066E-01
  | atomic   5          0.842078217863017E-03
  | atomic   6         -0.269010200890863E-02
  | atomic   7         -0.677086732913254E-02
  | atomic   8         -0.113893494883873E-01
  | atomic   9          0.155338474660470E-01
  | atomic  10          0.175983435464532E-02
  | atomic  11         -0.298078528305818E-02
  | atomic  12         -0.920574372382198E-02
  | atomic  13          0.351127486996741E-02
  | atomic  14         -0.361660132165948E-02
  | atomic  15         -0.191266380954164E-01
  | atomic  16          0.151919288680365E-01
  | atomic  17          0.118692211082364E-01
  | atomic  18         -0.319363552730961E-01
  | atomic  19         -0.167363795002967E-01
  | atomic  20          0.968466988892698E-02
  | atomic  21          0.177180868875869E-01
  | atomic  22         -0.204610313259439E-01
  | atomic  23         -0.648777028127195E-02
  | atomic  24          0.240906090862729E-01
  | atomic  25         -0.629075452951563E-02
  | atomic  26          0.745882035184149E-02
  | atomic  27          0.197694342746602E-01
  | atomic  28         -0.274906831203971E-02
  | atomic  29          0.124943246856400E-01
  | atomic  30          0.185693095084452E-01
  | atomic  31          0.469982226519844E-02
  | atomic  32         -0.121264427783904E-01
  | atomic  33         -0.138662053081014E-01
  | atomic  34          0.155528551373518E-01
  | atomic  35          0.116174914836195E-01
  | atomic  36         -0.304707217035617E-01
  | lattice  1          0.755383998812371E-02
  | lattice  2         -0.195414651066342E-02
  | lattice  3          0.246259655789890E-02
------------------------------------------------------------
  Final atomic structure:
                         x [A]             y [A]             z [A]
  lattice_vector         5.84390346        0.00000000        0.00000000
  lattice_vector         0.00000000        5.95316647        0.00000000
  lattice_vector         0.00000000        0.00000000        7.51727253

            atom        -2.90954494        0.01306586        0.01540052  Pd
            atom         0.01233880        0.01290439       -3.74140662  Pd
            atom         0.01314897       -2.96378780        0.01520495  Pd
            atom        -2.90899249       -2.96362457       -3.74131106  Pd
            atom        -2.25406719        0.71778077        3.04863709  Se
            atom        -0.64296888       -0.69198673       -0.71051925  Se
            atom         0.66827441        2.28481687       -3.01527967  Se
            atom         2.27973193       -2.25877293        0.74265343  Se
            atom         2.27936290       -0.69168651       -3.01522308  Se
            atom         0.66791446        0.71738299        0.74263558  Se
            atom        -0.64261370       -2.25876684        3.04866854  Se
            atom        -2.25404348        2.28480264       -0.71063731  Se

  Fractional coordinates:
                         L1                L2                L3
       atom_frac        -0.49787697        0.00219477        0.00204869  Pd
       atom_frac         0.00211140        0.00216765       -0.49770799  Pd
       atom_frac         0.00225003       -0.49785065        0.00202267  Pd
       atom_frac        -0.49778244       -0.49782323       -0.49769528  Pd
       atom_frac        -0.38571260        0.12057126        0.40555096  Se
       atom_frac        -0.11002387       -0.11623843       -0.09451822  Se
       atom_frac         0.11435411        0.38379859       -0.40111352  Se
       atom_frac         0.39010431       -0.37942378        0.09879294  Se
       atom_frac         0.39004116       -0.11618800       -0.40110600  Se
       atom_frac         0.11429252        0.12050444        0.09879056  Se
       atom_frac        -0.10996309       -0.37942276        0.40555514  Se
       atom_frac        -0.38570854        0.38379620       -0.09453393  Se
------------------------------------------------------------

------------------------------------------------------------------------------
  Final output of selected total energy values:

  The following output summarizes some interesting total energy values
  at the end of a run (AFTER all relaxation, molecular dynamics, etc.).

  | Total energy of the DFT / Hartree-Fock s.c.f. calculation      :       -1087911.115367356 eV
  | Final zero-broadening corrected energy (caution - metals only) :       -1087911.116412752 eV
  | For reference only, the value of 1 Hartree used in FHI-aims is :             27.211384500 eV
  | For reference only, the overall average (free atom contribution
  | + realspace contribution) of the electrostatic potential after
  | s.c.f. convergence is                                          :            -16.941799849 eV

  Before relying on these values, please be sure to understand exactly which
  total energy value is referred to by a given number. Different objects may
  all carry the same name 'total energy'. Definitions:

  Total energy of the DFT / Hartree-Fock s.c.f. calculation:
  | Note that this energy does not include ANY quantities calculated after the
  | s.c.f. cycle, in particular not ANY RPA, MP2, etc. many-body perturbation terms.

  Final zero-broadening corrected energy:
  | For metallic systems only, a broadening of the occupation numbers at the Fermi
  | level can be extrapolated back to zero broadening by an electron-gas inspired
  | formula. For all systems that are not real metals, this value can be
  | meaningless and should be avoided.

------------------------------------------------------------------------------
  Methods described in the following list of references were used in this FHI-aims run.
  If you publish the results, please make sure to cite these reference if they apply.
  FHI-aims is an academic code, and for our developers (often, Ph.D. students
  and postdocs), scientific credit in the community is essential.
  Thank you for helping us!

  For any use of FHI-aims, please cite:

    Volker Blum, Ralf Gehrke, Felix Hanke, Paula Havu, Ville Havu,
    Xinguo Ren, Karsten Reuter, and Matthias Scheffler
    'Ab initio molecular simulations with numeric atom-centered orbitals'
    Computer Physics Communications 180, 2175-2196 (2009)
    http://dx.doi.org/10.1016/j.cpc.2009.06.022


  For the analytical stress tensor used in your run, please cite:

    Franz Knuth, Christian Carbogno, Viktor Atalla, Volker Blum, Matthias Scheffler
    'All-electron formalism for total energy strain derivatives and
    stress tensor components for numeric atom-centered orbitals'
    Computer Physics Communications 190, 33-50 (2015).
    http://dx.doi.org/10.1016/j.cpc.2015.01.003


  The provided symmetry information was generated with SPGlib:

    Atsushi Togo, Yusuke Seto, Dimitar Pashov
    SPGlib 1.7.3 obtained from http://spglib.sourceforge.net
    Copyright (C) 2008 Atsushi Togo


  The ELSI infrastructure was used in your run to solve the Kohn-Sham electronic structure.
  Please check out http://elsi-interchange.org to learn more.
  If scalability is important for your project, please acknowledge ELSI by citing:

    V. W-z. Yu, F. Corsetti, A. Garcia, W. P. Huhn, M. Jacquelin, W. Jia,
    B. Lange, L. Lin, J. Lu, W. Mi, A. Seifitokaldani, A. Vazquez-Mayagoitia,
    C. Yang, H. Yang, and V. Blum
    'ELSI: A unified software interface for Kohn-Sham electronic structure solvers'
    Computer Physics Communications 222, 267-285 (2018).
    http://dx.doi.org/10.1016/j.cpc.2017.09.007


  For the real-space grid partitioning and parallelization used in this calculation, please cite:

    Ville Havu, Volker Blum, Paula Havu, and Matthias Scheffler,
    'Efficient O(N) integration for all-electron electronic structure calculation'
    'using numerically tabulated basis functions'
    Journal of Computational Physics 228, 8367-8379 (2009).
    http://dx.doi.org/10.1016/j.jcp.2009.08.008

  Of course, there are many other important community references, e.g., those cited in the
  above references. Our list is limited to references that describe implementations in the
  FHI-aims code. The reason is purely practical (length of this list) - please credit others as well.

------------------------------------------------------------
          Leaving FHI-aims.
          Date     :  20200420, Time     :  214056.200

          Computational steps:
          | Number of self-consistency cycles          :          102
          | Number of SCF (re)initializations          :            5
          | Number of relaxation steps                 :            4

          Detailed time accounting                     :  max(cpu_time)    wall_clock(cpu1)
          | Total time                                 :     3249.267 s        3250.546 s
          | Preparation time                           :        0.557 s           0.636 s
          | Boundary condition initalization           :        0.694 s           0.694 s
          | Grid partitioning                          :        1.722 s           1.721 s
          | Preloading free-atom quantities on grid    :        4.675 s           4.677 s
          | Free-atom superposition energy             :        0.684 s           0.683 s
          | Total time for integrations                :      288.361 s         288.378 s
          | Total time for solution of K.-S. equations :     1230.150 s        1231.171 s
          | Total time for EV reorthonormalization     :       15.707 s          15.423 s
          | Total time for density & force components  :     1298.819 s        1298.959 s
          | Total time for mixing & preconditioning    :       73.553 s          73.565 s
          | Total time for Hartree multipole update    :        0.430 s           0.436 s
          | Total time for Hartree multipole sum       :      233.528 s         233.557 s
          | Total time for total energy evaluation     :        1.819 s           1.828 s
          | Total time for scaled ZORA corrections     :        0.000 s           0.000 s
          | Total time for vdW correction              :       94.925 s          94.948 s

          Partial memory accounting:
          | Residual value for overall tracked memory usage across tasks:     0.000000 MB (should be 0.000000 MB)
          | Peak values for overall tracked memory usage:
          |   Minimum:      399.147 MB (on task 17 after allocating d_wave)
          |   Maximum:      404.343 MB (on task  5 after allocating d_wave)
          |   Average:      401.031 MB
          | Largest tracked array allocation:
          |   Minimum:      176.357 MB (KS_eigenvector_complex on task  0)
          |   Maximum:      178.456 MB (KS_eigenvector_complex on task  1)
          |   Average:      177.057 MB
          Note:  These values currently only include a subset of arrays which are explicitly tracked.
          The "true" memory usage will be greater.

          Have a nice day.
------------------------------------------------------------
