------------------------------------------------------------
          Invoking FHI-aims ...

          When using FHI-aims, please cite the following reference:

            Volker Blum, Ralf Gehrke, Felix Hanke, Paula Havu,
            Ville Havu, Xinguo Ren, Karsten Reuter, and Matthias Scheffler,
            'Ab Initio Molecular Simulations with Numeric Atom-Centered Orbitals',
            Computer Physics Communications 180, 2175-2196 (2009)

          In addition, many other developments in FHI-aims are likely important for
          your particular application. A partial list of references is given at the end of
          this file. Thank you for giving credit to the authors of these developments.

          For any questions about FHI-aims, please visit our slack channel at

            https://fhi-aims.slack.com

          and our main development and support site at

            https://aims-git.rz-berlin.mpg.de .

          The latter site, in particular, has a wiki to collect information, as well
          as an issue tracker to log discussions, suggest improvements, and report issues
          or bugs. https://aims-git.rz-berlin.mpg.de is also the main development site
          of the project and all new and updated code versions can be obtained there.
          Please send an email to aims-coordinators@fhi-berlin.mpg.de and we will add
          you to these sites. They are for you and everyone is welcome there.

------------------------------------------------------------



  Date     :  20201110, Time     :  181319.832
  Time zero on CPU 1             :   0.125000000000000E+00  s.
  Internal wall clock time zero  :           374263999.832  s.

  FHI-aims created a unique identifier for this run for later identification
  aims_uuid : 45F579C5-5F89-4DE8-A61B-5ACE9D069503

  Build configuration of the current instance of FHI-aims
  -------------------------------------------------------
  FHI-aims version      : 201103
  Commit number         : faf196098
  CMake host system     : Linux-4.4.0-19041-Microsoft
  CMake version         : 3.18.4
  Fortran compiler      : /home/roman/miniconda3/envs/aims-env/bin/mpifort (GNU) version 7.5.0
  Fortran compiler flags: -O2 -ffree-line-length-none
  C compiler            : /home/roman/miniconda3/envs/aims-env/bin/gcc (GNU) version 7.5.0
  C compiler flags      : -O2 -funroll-loops -std=gnu99
  Using MPI
  Using LibXC
  Using i-PI
  Using RLSY
  Linking against: /home/roman/miniconda3/envs/aims-env/lib/libmkl_intel_lp64.so
                   /home/roman/miniconda3/envs/aims-env/lib/libmkl_sequential.so
                   /home/roman/miniconda3/envs/aims-env/lib/libmkl_core.so

  Using        2 parallel tasks.
  Task        0 on host DESKTOP-A6RSI3L reporting.
  Task        1 on host DESKTOP-A6RSI3L reporting.

  Performing system and environment tests:
  *** Environment variable OMP_NUM_THREADS is not set
  *** For performance reasons you might want to set it to 1
  | Checking for ScaLAPACK...
  | No ScaLAPACK compiled in.

  Obtaining array dimensions for all initial allocations:
  
  -----------------------------------------------------------------------
  Parsing control.in (first pass over file, find array dimensions only).
  The contents of control.in will be repeated verbatim below
  unless switched off by setting 'verbatim_writeout .false.' .
  in the first line of control.in .
  -----------------------------------------------------------------------
  
  #===============================================================================
  # FHI-aims file: ./control.in
  # Created using the Atomic Simulation Environment (ASE)
  # Tue Nov 10 17:37:33 2020
  #===============================================================================
  xc                                 pbe
  include_spin_orbit
  check_stacksize .false.
  # Common choices of dispersion methods:
  # 	 vdw_correction_hirshfeld
  # 	 many_body_dispersion
  # 	 many_body_dispersion_nl 	 beta=0.81
  spin                               collinear
  default_initial_moment 2
  fixed_spin_moment 2
  k_grid                             6 6 6
  relativistic                       atomic_zora scalar
  ### SCF settings
  adjust_scf 	 always 	 3
  # frozen_core_scf 	 .true.
  charge_mix_param  0.02
  occupation_type 	 gaussian 	 0.1
  # sc_accuracy_eev   1E-3 	 	 # sum of eigenvalues convergence
  # sc_accuracy_etot  1E-6 	 	 # total energy convergence
  sc_accuracy_rho   1E-3 	 	 # electron density convergence
  # elsi_restart 	 read_and_write 	 1000
  ### band structure section
  ## Brillouin Zone section Nr. 1
  output band 0.000000 0.000000 0.000000 	 0.500000 -0.500000 0.500000 	 31 	 G H
  output band 0.500000 -0.500000 0.500000 	 0.000000 0.000000 0.500000 	 31 	 H N
  output band 0.000000 0.000000 0.500000 	 0.000000 0.000000 0.000000 	 31 	 N G
  output band 0.000000 0.000000 0.000000 	 0.250000 0.250000 0.250000 	 31 	 G P
  output band 0.250000 0.250000 0.250000 	 0.500000 -0.500000 0.500000 	 31 	 P H
  ## Brillouin Zone section Nr. 2
  output band 0.250000 0.250000 0.250000 	 0.000000 0.000000 0.500000 	 31 	 P N
  ### band structure section
  ## Brillouin Zone section Nr. 1
  output band_mulliken 0.000000 0.000000 0.000000 	 0.500000 -0.500000 0.500000 	 31 	 G H
  output band_mulliken 0.500000 -0.500000 0.500000 	 0.000000 0.000000 0.500000 	 31 	 H N
  output band_mulliken 0.000000 0.000000 0.500000 	 0.000000 0.000000 0.000000 	 31 	 N G
  output band_mulliken 0.000000 0.000000 0.000000 	 0.250000 0.250000 0.250000 	 31 	 G P
  output band_mulliken 0.250000 0.250000 0.250000 	 0.500000 -0.500000 0.500000 	 31 	 P H
  ## Brillouin Zone section Nr. 2
  output band_mulliken 0.250000 0.250000 0.250000 	 0.000000 0.000000 0.500000 	 31 	 P N
  ### DOS section
  output atom_proj_dos  -10 0 300 0.05       # Estart Eend n_points broadening
  dos_kgrid_factors 4 4 4                    # auxiliary k-grid
  #===============================================================================
  
  ################################################################################
  #
  #  FHI-aims code project
  #  VB, Fritz-Haber Institut, 2009
  #
  #  Suggested "light" defaults for Fe atom (to be pasted into control.in file)
  #  Be sure to double-check any results obtained with these settings for post-processing,
  #  e.g., with the "tight" defaults and larger basis sets.
  #
  ################################################################################
    species        Fe
  #     global species definitions
      nucleus             26
      mass                55.845
  #
      l_hartree           4
  #
      cut_pot             3.5          1.5  1.0
      basis_dep_cutoff    1e-4
  #
      radial_base         51 5.0
      radial_multiplier   1
      angular_grids       specified
        division   0.4337   50
        division   0.8154  110
        division   1.1046  194
        division   1.3713  302
  #      division   1.5424  434
  #      division   1.7365  590
  #      division   1.9587  770
  #      division   1.9990  974
  #      division   2.4139 1202
  #      outer_grid  1202
        outer_grid  302
  ################################################################################
  #
  #  Definition of "minimal" basis
  #
  ################################################################################
  #     valence basis states
      valence      4  s   2.
      valence      3  p   6.
      valence      3  d   6.
  #     ion occupancy
      ion_occ      4  s   1.
      ion_occ      3  p   6.
      ion_occ      3  d   5.
  ################################################################################
  #
  #  Suggested additional basis functions. For production calculations,
  #  uncomment them one after another (the most important basis functions are
  #  listed first).
  #
  #  Constructed for dimers: 1.45 A, 1.725 A, 2.25 A, 3.00 A, 4.00 A
  #
  ################################################################################
  #  "First tier" - improvements: -300.53 meV to -10.50 meV
       hydro 4 f 9.4
       hydro 2 p 2.2
       hydro 5 g 12.4
       hydro 3 d 3.1
       ionic 4 s auto
  #  "Second tier" - improvements: -16.31 meV to -0.65 meV
  #     hydro 3 d 6.2
  #     hydro 6 h 19.2
  #     hydro 4 f 15.2
  #     hydro 4 f 6.6
  #     hydro 3 p 3
  #     hydro 5 g 13.2
  #     hydro 1 s 0.65
  #  "Third tier" - improvements: -1.60 meV to -0.10 meV
  #     hydro 4 d 7.8
  #     hydro 4 p 19.6
  #     hydro 4 d 10.4
  #     ionic 4 p auto
  #     hydro 6 h 17.6
  #     hydro 5 f 27.2
  #     hydro 4 s 4.8
  #  "Fourth tier": improvements -0.13 meV and below
  #     hydro 5 f 12
  #     hydro 5 g 10.4
  #     hydro 5 p 8.4
  #     hydro 4 d 14.8
  #     hydro 2 s 1.9
  
  -----------------------------------------------------------------------
  Completed first pass over input file control.in .
  -----------------------------------------------------------------------
  
  
  -----------------------------------------------------------------------
  Parsing geometry.in (first pass over file, find array dimensions only).
  The contents of geometry.in will be repeated verbatim below
  unless switched off by setting 'verbatim_writeout .false.' .
  in the first line of geometry.in .
  -----------------------------------------------------------------------
  
  #=======================================================
  # FHI-aims file: ./geometry.in
  # Created using the Atomic Simulation Environment (ASE)
  # Tue Nov 10 17:37:33 2020
  #=======================================================
  lattice_vector 2.4595568999999999 0.0000000000000000 0.0000000000000000
  lattice_vector -0.8198522998182515 2.3188924836698086 0.0000000000000000
  lattice_vector -0.8198522998182515 -1.1594462414493576 2.0082197997254414
  atom_frac 0.0000000000000000 0.0000000000000000 0.0000000000000000 Fe
  
  -----------------------------------------------------------------------
  Completed first pass over input file geometry.in .
  -----------------------------------------------------------------------
  

  Basic array size parameters:
  | Number of species                 :        1
  | Number of atoms                   :        1
  | Number of lattice vectors         :        3
  | Max. basis fn. angular momentum   :        4
  | Max. atomic/ionic basis occupied n:        4
  | Max. number of basis fn. types    :        3
  | Max. radial fns per species/type  :        7
  | Max. logarithmic grid size        :     1397
  | Max. radial integration grid size :       51
  | Max. angular integration grid size:      302
  | Max. angular grid division number :        8
  | Radial grid for Hartree potential :     1397
  | Number of spin channels           :        2

------------------------------------------------------------
          Reading file control.in.
------------------------------------------------------------
  XC: Using PBE gradient-corrected functionals.
  Calculating non-self-consistent second-variational spin-orbit coupling after scf-cycle
  Spin treatment: Spin density functional theory - collinear spins.
  You have request a SOC run with spin-polarization.
  symmetry_reduced_k_grid will be turned off.
  Initial spin moment per atom:   2.0000
  Fixed spin moment calculation, N_up - N_down =      2.00000000
  Found k-point grid:         6         6         6
  Scalar relativistic treatment of kinetic energy: on-site free-atom approximation to ZORA.
  S.C.F. convergence parameters will be adjusted in iteration number     3 of each new s.c.f. cycle.
  Charge density mixing - mixing parameter:     0.0200
  Occupation type: Gaussian broadening, width =   0.100000E+00 eV.
  Convergence accuracy of self-consistent charge density:  0.1000E-02

  Plot band    1
  | begin  0.000000  0.000000  0.000000
  | end    0.500000 -0.500000  0.500000
  | number of points:   31

  Plot band    2
  | begin  0.500000 -0.500000  0.500000
  | end    0.000000  0.000000  0.500000
  | number of points:   31

  Plot band    3
  | begin  0.000000  0.000000  0.500000
  | end    0.000000  0.000000  0.000000
  | number of points:   31

  Plot band    4
  | begin  0.000000  0.000000  0.000000
  | end    0.250000  0.250000  0.250000
  | number of points:   31

  Plot band    5
  | begin  0.250000  0.250000  0.250000
  | end    0.500000 -0.500000  0.500000
  | number of points:   31

  Plot band    6
  | begin  0.250000  0.250000  0.250000
  | end    0.000000  0.000000  0.500000
  | number of points:   31
  Mulliken analysis of all k points in band will be performed

  Plot band    7
  | begin  0.000000  0.000000  0.000000
  | end    0.500000 -0.500000  0.500000
  | number of points:   31
  Mulliken analysis of all k points in band will be performed

  Plot band    8
  | begin  0.500000 -0.500000  0.500000
  | end    0.000000  0.000000  0.500000
  | number of points:   31
  Mulliken analysis of all k points in band will be performed

  Plot band    9
  | begin  0.000000  0.000000  0.500000
  | end    0.000000  0.000000  0.000000
  | number of points:   31
  Mulliken analysis of all k points in band will be performed

  Plot band   10
  | begin  0.000000  0.000000  0.000000
  | end    0.250000  0.250000  0.250000
  | number of points:   31
  Mulliken analysis of all k points in band will be performed

  Plot band   11
  | begin  0.250000  0.250000  0.250000
  | end    0.500000 -0.500000  0.500000
  | number of points:   31
  Mulliken analysis of all k points in band will be performed

  Plot band   12
  | begin  0.250000  0.250000  0.250000
  | end    0.000000  0.000000  0.500000
  | number of points:   31
  Calculating atom-projected density of states with
  | energy interval :-10.000000  0.000000
  | points & broadening :   300  0.050000
  Found k-point grid multipliers for perturbative DOS :         4         4         4

  Reading configuration options for species Fe                  .
  | Found nuclear charge :  26.0000
  | Found atomic mass :    55.844999999999999      amu
  | Found l_max for Hartree potential  :   4
  | Found cutoff potl. onset [A], width [A], scale factor :    3.50000    1.50000    1.00000
  | Threshold for basis-dependent cutoff potential is   0.100000E-03
  | Found data for basic radial integration grid :    51 points, outermost radius =    5.000 A
  | Found multiplier for basic radial grid :   1
  | Found angular grid specification: user-specified.
  | Specified grid contains     5 separate shells.
  | Check grid settings after all constraints further below.
  | Found free-atom valence shell :  4 s   2.000
  | Found free-atom valence shell :  3 p   6.000
  | Found free-atom valence shell :  3 d   6.000
  | Found free-ion valence shell :  4 s   1.000
  | Found free-ion valence shell :  3 p   6.000
  | Found free-ion valence shell :  3 d   5.000
  | Found hydrogenic basis function :  4 f   9.400
  | Found hydrogenic basis function :  2 p   2.200
  | Found hydrogenic basis function :  5 g  12.400
  | Found hydrogenic basis function :  3 d   3.100
  | Found ionic basis function :  4 s , default cutoff radius.
  Species Fe                  : Missing cutoff potential type.
  Defaulting to exp(1/x)/(1-x)^2 type cutoff potential.
  Species Fe: No 'logarithmic' tag. Using default grid for free atom:
  | Default logarithmic grid data [bohr] : 0.1000E-03 0.1000E+03 0.1012E+01
  | Will include ionic basis functions of  2.0-fold positive Fe                   ion.
  Species Fe: On-site basis accuracy parameter (for Gram-Schmidt orthonormalisation) not specified.
  Using default value basis_acc =  0.1000000E-03.
  Species Fe                  : Using default innermost maximum threshold i_radial=  2 for radial functions.
  Species Fe                  : Default cutoff onset for free atom density etc. : 0.35000000E+01 AA.
  Species Fe                  : Basic radial grid will be enhanced according to radial_multiplier =   1, to contain    51 grid points.

  Finished reading input file 'control.in'.

------------------------------------------------------------


------------------------------------------------------------
          Reading geometry description geometry.in.
------------------------------------------------------------
  | The smallest distance between any two atoms is         2.45955690 AA.
  | The first atom of this pair is atom number                      1 .
  | The second atom of this pair is atom number                     1 .
  | Wigner-Seitz cell of the first atom image           0     1     0 .
  | (The Wigner-Seitz cell of the second atom is 0 0 0  by definition.)

  Symmetry information by spglib:
  | Precision set to  0.1E-04
  | Number of Operations  : 48
  | Space group           : 229
  | International         : Im-3m
  | Schoenflies           : Oh^9
  Input structure read successfully.
  The structure contains        1 atoms,  and a total of         26.000 electrons.

  Input geometry:
  | Unit cell:
  |        2.45955690        0.00000000        0.00000000
  |       -0.81985230        2.31889248        0.00000000
  |       -0.81985230       -1.15944624        2.00821980
  | Atomic structure:
  |       Atom                x [A]            y [A]            z [A]
  |    1: Species Fe            0.00000000        0.00000000        0.00000000

  Lattice parameters for 3D lattice (in Angstroms) :     2.459557    2.459557    2.459557
  Angle(s) between unit vectors (in degrees)       :   109.471221  109.471221  109.471221


  Quantities derived from the lattice vectors:
  | Reciprocal lattice vector 1:  2.554601  0.903188  1.564367
  | Reciprocal lattice vector 2:  0.000000  2.709563  1.564367
  | Reciprocal lattice vector 3:  0.000000  0.000000  3.128734
  | Unit cell volume                               :   0.114538E+02  A^3

  Fractional coordinates:
                         L1                L2                L3
       atom_frac         0.00000000        0.00000000        0.00000000  Fe

  Initial moments and charges:
  |  Atom   Moment         Charge        Species
  |     1   0.200000E+01   0.000000E+00   Fe


  Finished reading input file 'control.in'.


------------------------------------------------------------
          Reading geometry description geometry.in.
------------------------------------------------------------

  Consistency checks for the contents of control.in are next.

  MPI_IN_PLACE appears to work with this MPI implementation.
  | Keeping use_mpi_in_place .true. (see manual).
  Target number of points in a grid batch is not set. Defaulting to  100
  Method for grid partitioning is not set. Defaulting to parallel hash+maxmin partitioning.
  Batch size limit is not set. Defaulting to    200
  By default, will store active basis functions for each batch.
  If in need of memory, prune_basis_once .false. can be used to disable this option.
  communication_type for Hartree potential was not specified.
  Defaulting to calc_hartree .
  Defaulting to Pulay charge density mixer.
  Pulay mixer: Number of relevant iterations not set.
  Defaulting to    8 iterations.
  Pulay mixer: Number of initial linear mixing iterations not set.
  Defaulting to    0 iterations.
  Work space size for distributed Hartree potential not set.
  Defaulting to   0.200000E+03 MB.
  Mixing parameter for spin density mixing has not been set.
  Using charge_mix_param as default:     0.0200.
  Algorithm-dependent basis array size parameters:
  | n_max_pulay                         :        8
  Maximum number of self-consistency iterations not provided.
  Presetting  1000 iterations.
  Presetting      1001 iterations before the initial mixing cycle
  is restarted anyway using the sc_init_iter criterion / keyword.
  Presetting a factor      1.000 between actual scf density residual
  and density convergence criterion sc_accuracy_rho below which sc_init_iter
  takes no effect.
  Calculation of forces was not defined in control.in. No forces will be calculated.
  Geometry relaxation not requested: no relaxation will be performed.
  No accuracy limit for integral partition fn. given. Defaulting to  0.1000E-14.
  No threshold value for u(r) in integrations given. Defaulting to  0.1000E-05.
  No accuracy for occupation numbers given. Defaulting to  0.1000E-12.
  No threshold value for occupation numbers given. Defaulting to  0.0000E+00.
  No accuracy for fermi level given. Defaulting to  0.1000E-19.
  Maximum # of iterations to find E_F not set. Defaulting to  200.
  Preferred method for the eigenvalue solver ('KS_method') not specified in 'control.in'.
  Defaulting to serial version, LAPACK (via ELSI), since more k-points than CPUs available.
  Will not use alltoall communication since running on < 1024 CPUs.
  Threshold for basis singularities not set.
  Default threshold for basis singularities:  0.1000E-04
  partition_type (choice of integration weights) for integrals was not specified.
  | Using a version of the partition function of Stratmann and coworkers ('stratmann_sparse').
  | At each grid point, the set of atoms used to build the partition table is smoothly restricted to
  | only those atoms whose free-atom density would be non-zero at that grid point.
  Partitioning for Hartree potential was not defined. Using partition_type for integrals.
  | Adjusted default value of keyword multip_moments_threshold to:       0.10000000E-11
  | This value may affect high angular momentum components of the Hartree potential in periodic systems.
  Angular momentum expansion for Kerker preconditioner not set explicitly.
  | Using default value of   0
  No explicit requirement for turning off preconditioner.
  | By default, it will be turned off when the charge convergence reaches
  | sc_accuracy_rho  =   0.100000E-02
  No special mixing parameter while Kerker preconditioner is on.
  Using default: charge_mix_param =     0.0200.
  No q(lm)/r^(l+1) cutoff set for long-range Hartree potential.
  | Using default value of  0.100000E-09 .
  | Verify using the multipole_threshold keyword.
  Defaulting to new monopole extrapolation.
  Density update method: automatic selection selected.
  Using density matrix based charge density update.
  Using density matrix based charge density update.
  Using packed matrix style: index .
  Defaulting to use full k-point grid (no symmetry reduction).
  Charge integration errors on the 3D integration grid will be compensated
  by explicit normalization and distribution of residual charges.
  Use the "compensate_multipole_errors" flag to change this behaviour.
 * Warning. Found "dos_kgrid_factors" request but neither a DOS nor
 * postscf_eigenvalues are requested. dos_kgrid_factors will be ignored.
  Set 'collect_eigenvectors' to be '.true.' for all serial calculations. This is mandatory.
  Set 'collect_eigenvectors' to be '.true.' for KS_method lapack_fast and serial.

  Consistency checks for the contents of geometry.in are next.


  Range separation radius for Ewald summation (hartree_convergence_parameter):      3.14367473 bohr.
  Number of empty states per atom not set in control.in - providing a guess from actual geometry.
  | Total number of empty states used during s.c.f. cycle:        6
  If you use a very high smearing, use empty_states (per atom!) in control.in to increase this value.

  Structure-dependent array size parameters: 
  | Number of distinct atom types in initial rho :        1
  | Maximum number of distinct radial functions  :       12
  | Maximum number of basis functions            :       40
  | Number of Kohn-Sham states (occupied + empty):       19
------------------------------------------------------------

------------------------------------------------------------
          Preparing all fixed parts of the calculation.
------------------------------------------------------------
  Determining machine precision:
     2.2250738585072014E-308
  Setting up grids for atomic and cluster calculations.

  Creating wave function, potential, and density for free atoms.

  Species: Fe

  List of occupied orbitals and eigenvalues:
    n    l              occ      energy [Ha]    energy [eV]
    1    0           2.0000      -259.347078     -7057.1931
    2    0           2.0000       -30.151288      -820.4583
    3    0           2.0000        -3.446299       -93.7786
    4    0           2.0000        -0.186616        -5.0781
    2    1           6.0000       -25.685596      -698.9406
    3    1           6.0000        -2.197354       -59.7930
    3    2           6.0000        -0.267356        -7.2751

  Spin-polarized or charged system:
  Charge density initialized according to selected moments and charges.

  Creating spin-polarized density from free atoms.

  Species: Fe
  Charge:   0.000000
  Moment:   2.000000

  List of occupied orbitals and eigenvalues:
    n    l      energy [Ha]    energy [eV]    occupation
  Spin-up
    1    0      -259.341241     -7057.0342     1.00000000
    2    0       -30.162043      -820.7510     1.00000000
    3    0        -3.480163       -94.7000     1.00000000
    4    0        -0.193155        -5.2560     1.00000000
    2    1       -25.692256      -699.1219     3.00000000
    3    1        -2.230590       -60.6974     3.00000000
    3    2        -0.297071        -8.0837     4.00000000
  Spin-down
    1    0      -259.341357     -7057.0374     1.00000000
    2    0       -30.127563      -819.8127     1.00000000
    3    0        -3.401374       -92.5561     1.00000000
    4    0        -0.178982        -4.8703     1.00000000
    2    1       -25.666133      -698.4110     3.00000000
    3    1        -2.153496       -58.5996     3.00000000
    3    2        -0.229218        -6.2374     2.00000000


  Adding cutoff potential to free-atom effective potential.
  Creating fixed part of basis set: Ionic, confined, hydrogenic.

  Fe                   ion:

  List of free ionic orbitals and eigenvalues:
    n    l      energy [Ha]    energy [eV]
    1    0      -260.321188     -7083.6999
    2    0       -31.136355      -847.2633
    3    0        -4.393974      -119.5661
    4    0        -0.821894       -22.3649
    2    1       -26.668999      -725.7004
    3    1        -3.137384       -85.3726
    3    2        -1.170461       -31.8499


  List of ionic basis orbitals and eigenvalues:
    n    l      energy [Ha]    energy [eV]    outer radius [A]
    4    0        -0.821823       -22.3629       4.554938


  Fe                   hydrogenic:

  List of hydrogenic basis orbitals: 
    n    l      effective z      eigenvalue [eV]  inner max. [A]     outer max. [A]     outer radius [A]   
    4    3         9.400000       -75.1370           0.896093           0.896093           3.791786
    2    1         2.200000       -16.4552           0.964292           0.964292           4.554938
    5    4        12.400000       -83.6801           1.063365           1.063365           4.030789
    3    2         3.100000       -14.4291           1.515830           1.515830           4.610964

  Creating atomic-like basis functions for current effective potential.

  Species Fe                  :

  List of atomic basis orbitals and eigenvalues:
    n    l      energy [Ha]    energy [eV]    outer radius [A]
    1    0      -259.347078     -7057.1931       0.409790
    2    0       -30.151288      -820.4583       1.216422
    3    0        -3.446299       -93.7786       3.438507
    4    0        -0.186616        -5.0781       4.610964
    2    1       -25.685596      -698.9406       1.277383
    3    1        -2.197354       -59.7930       3.981813
    3    2        -0.267356        -7.2751       4.499593

  Assembling full basis from fixed parts.
  | Species Fe :   atomic orbital   1 s accepted.
  | Species Fe :   atomic orbital   2 s accepted.
  | Species Fe :   atomic orbital   3 s accepted.
  | Species Fe :    ionic orbital   4 s accepted.
  | Species Fe :   atomic orbital   4 s accepted.
  | Species Fe :   atomic orbital   2 p accepted.
  | Species Fe :   atomic orbital   3 p accepted.
  | Species Fe :    hydro orbital   2 p accepted.
  | Species Fe :   atomic orbital   3 d accepted.
  | Species Fe :    hydro orbital   3 d accepted.
  | Species Fe :    hydro orbital   4 f accepted.
  | Species Fe :    hydro orbital   5 g accepted.

  Basis size parameters after reduction:
  | Total number of radial functions:       12
  | Total number of basis functions :       40

  Per-task memory consumption for arrays in subroutine allocate_ext:
  |           4.293172MB.
  Testing on-site integration grid accuracy.
  |  Species  Function  <phi|h_atom|phi> (log., in eV)  <phi|h_atom|phi> (rad., in eV)
           1        1              -7057.1930710306              -7057.1872777124
           1        2               -820.4582952878               -820.4582331439
           1        3                -93.7785623021                -93.7785610589
           1        4                 -4.2201457338                 -4.2209190008
           1        5                  6.4834568061                  6.3497174940 ***
           1        6               -698.9406259938               -698.9406257532
           1        7                -59.7930400084                -59.7930399016
           1        8                  2.2031040148                  2.1993518317
           1        9                 -7.2752599110                 -7.2754441096
           1       10                  7.3532119403                  7.3196728658 ***
           1       11                 40.5776732000                 40.5777100294
           1       12                 61.2252577499                 61.2251765791
 * Note: Onsite integrals marked "***" above are less accurate than
 * onsite_accuracy_threshold =    0.03000 eV. Usually, this is harmless.
 * When in doubt, tighten the "radial" and/or "radial_multiplier" flags to check.

  Preparing densities etc. for the partition functions (integrals / Hartree potential).

  Preparations completed.
  max(cpu_time)          :      0.578 s.
  Wall clock time (cpu1) :      0.649 s.
------------------------------------------------------------

------------------------------------------------------------
          Begin self-consistency loop: Initialization.

          Date     :  20201110, Time     :  181320.590
------------------------------------------------------------

  Initializing index lists of integration centers etc. from given atomic structure:
  Mapping all atomic coordinates to central unit cell.

  Initializing the k-points
  | Number of k-points                             :       216
  The eigenvectors in the calculations are COMPLEX.
  | K-points in task   0:       108
  | K-points in task   1:       108
  | Number of basis functions in the Hamiltonian integrals :      3074
  | Number of basis functions in a single unit cell        :        40
  | Number of centers in hartree potential         :       749
  | Number of centers in hartree multipole         :       459
  | Number of centers in electron density summation:       331
  | Number of centers in basis integrals           :       331
  | Number of centers in integrals                 :       125
  | Number of centers in hamiltonian               :       331
  | Consuming       1120 KiB for k_phase.
  | Number of super-cells (origin) [n_cells]                     :        3375
  | Number of super-cells (after PM_index) [n_cells]             :         332
  | Number of super-cells in hamiltonian [n_cells_in_hamiltonian]:         332
  | Size of matrix packed + index [n_hamiltonian_matrix_size] :      166099
  | Estimated reciprocal-space cutoff momentum G_max:         2.99975873 bohr^-1 .
  | Reciprocal lattice points for long-range Hartree potential:      42
  Partitioning the integration grid into batches with parallel hashing+maxmin method.
  | Number of batches:      125
  | Maximal batch size:     107
  | Minimal batch size:      50
  | Average batch size:      57.072
  | Standard deviation of batch sizes:       8.240

  Integration load balanced across     2 MPI tasks.
  Work distribution over tasks is as follows:
  Task     0 has       3540 integration points.
  Task     1 has       3594 integration points.
  Initializing partition tables, free-atom densities, potentials, etc. across the integration grid (initialize_grid_storage).
  | initialize_grid_storage: Actual outermost partition radius vs. multipole_radius_free
  | (-- VB: in principle, multipole_radius_free should be larger, hence this output)
  | Species        1: Confinement radius =              4.999999999999999 AA, multipole_radius_free =              5.022921912105459 AA.
  | Species        1: outer_partition_radius set to              5.022921912105459 AA .
  | The sparse table of interatomic distances needs        627.22 kbyte instead of       876.49 kbyte of memory.
  | Net number of integration points:     7134
  | of which are non-zero points    :     5820
  | Numerical average free-atom electrostatic potential    :    -27.48706806 eV
  Renormalizing the initial density to the exact electron count on the 3D integration grid.
  | Initial density: Formal number of electrons (from input files) :      26.0000000000
  | Integrated number of electrons on 3D grid     :      25.9999309508
  | Charge integration error                      :      -0.0000690492
  | Normalization factor for density and gradient :       1.0000026557
  Renormalizing the free-atom superposition density to the exact electron count on the 3D integration grid.
  | Formal number of electrons (from input files) :      26.0000000000
  | Integrated number of electrons on 3D grid     :      25.9999308812
  | Charge integration error                      :      -0.0000691188
  | Normalization factor for density and gradient :       1.0000026584
  Obtaining max. number of non-zero basis functions in each batch (get_n_compute_maxes).
  | Maximal number of non-zero basis functions:     1371 in task     0
  | Maximal number of non-zero basis functions:     1390 in task     1
  Allocating        2.505 MB for KS_eigenvector_complex
  Integrating Hamiltonian matrix: batch-based integration.
  Time summed over all CPUs for integration: real work        8.871 s, elapsed        8.976 s
  Integrating overlap matrix.
  Time summed over all CPUs for integration: real work        2.314 s, elapsed        2.329 s
  Decreasing sparse matrix size:
  | Tolerance:  0.1000E-12
  Hamiltonian matrix
  | Array has   135728 nonzero elements out of   166099 elements
  | Sparsity factor is 0.183
  Overlap matrix
  | Array has   120584 nonzero elements out of   166099 elements
  | Sparsity factor is 0.274
  New size of hamiltonian matrix:      136145

  Updating Kohn-Sham eigenvalues and eigenvectors using ELSI and the (modified) LAPACK eigensolver.
  Singularity check in k-point 2, task 0 (analysis for other k-points/tasks may follow below):
  Overlap matrix is not singular
  | Lowest and highest eigenvalues :  0.1744E-01,  0.9696E+01
  Finished singularity check of overlap matrix
  | Time :     0.011 s
  Starting LAPACK eigensolver
  Finished Cholesky decomposition
  | Time :     0.004 s
  Finished transformation to standard eigenproblem
  | Time :     0.002 s
  Finished solving standard eigenproblem
  | Time :     0.004 s
  Finished back-transformation of eigenvectors
  | Time :     0.003 s
  Fixed spin moments - chemical potentials:
  | Chemical potential, spin up:   -8.7333965927 eV.
  | Chemical potential, spin dn:   -8.2945242295 eV.
  | Fixed spin moment: Difference in chemical potentials between spin channels:  -0.4388723632 eV.

  Writing Kohn-Sham eigenvalues.

  Spin-up eigenvalues:
  K-point:       1 at    0.000000    0.000000    0.000000 (in units of recip. lattice)

  State    Occupation    Eigenvalue [Ha]    Eigenvalue [eV]
      1       1.00000        -259.383933        -7058.19594
      2       1.00000         -30.206826         -821.96956
      3       1.00000         -25.736675         -700.33056
      4       1.00000         -25.736675         -700.33056
      5       1.00000         -25.736675         -700.33056
      6       1.00000          -3.539439          -96.31305
      7       1.00000          -2.283415          -62.13488
      8       1.00000          -2.283415          -62.13488
      9       1.00000          -2.283415          -62.13488
     10       1.00000          -0.648079          -17.63512
     11       1.00000          -0.398744          -10.85038
     12       1.00000          -0.398741          -10.85030
     13       1.00000          -0.398741          -10.85028
     14       1.00000          -0.340879           -9.27578
     15       1.00000          -0.340878           -9.27576
     16       0.00000           0.807553           21.97464
     17       0.00000           0.807687           21.97827
     18       0.00000           0.832930           22.66519
     19       0.00000           0.833010           22.66735

  Spin-down eigenvalues:
  K-point:       1 at    0.000000    0.000000    0.000000 (in units of recip. lattice)

  State    Occupation    Eigenvalue [Ha]    Eigenvalue [eV]
      1       1.00000        -259.384050        -7058.19913
      2       1.00000         -30.172404         -821.03290
      3       1.00000         -25.710606         -699.62118
      4       1.00000         -25.710606         -699.62118
      5       1.00000         -25.710606         -699.62118
      6       1.00000          -3.461573          -94.19418
      7       1.00000          -2.206860          -60.05171
      8       1.00000          -2.206860          -60.05171
      9       1.00000          -2.206860          -60.05171
     10       1.00000          -0.628150          -17.09282
     11       1.00000          -0.332610           -9.05077
     12       1.00000          -0.332605           -9.05065
     13       1.00000          -0.332605           -9.05063
     14       0.00000          -0.270936           -7.37253
     15       0.00000          -0.270934           -7.37249
     16       0.00000           0.833488           22.68037
     17       0.00000           0.833623           22.68403
     18       0.00000           0.860034           23.40272
     19       0.00000           0.860115           23.40492

  Current spin moment of the entire structure :
  | N = N_up - N_down (sum over all k points):         2.00000
  | S (sum over all k points)                :         1.00000

  What follows are estimated values for band gap, HOMO, LUMO, etc.
  | They are estimated on a discrete k-point grid and not necessarily exact.
  | For converged numbers, create a DOS and/or band structure plot on a denser k-grid.

  Highest occupied state (VBM) at     -8.40068349 eV (relative to internal zero)
  | Occupation number:      0.93336342
  | K-point:      48 at    0.166667    0.166667    0.833333 (in units of recip. lattice)
  | Spin channel:        2

  Lowest unoccupied state (CBM) at    -8.65386116 eV (relative to internal zero)
  | Occupation number:      0.13033671
  | K-point:     155 at    0.666667    0.166667    0.666667 (in units of recip. lattice)
  | Spin channel:        1

  ESTIMATED overall HOMO-LUMO gap:     -0.25317767 eV between HOMO at k-point 48 and LUMO at k-point 155
  | This appears to be an indirect band gap.
  | Smallest direct gap :      0.63178447 eV for k_point 19 at    0.000000    0.500000    0.000000 (in units of recip. lattice)
  | Direct gap HOMO spin channel :     1
  | Direct gap LUMO spin channel :     1
  However, this system has fractional occupation numbers. Since we use a finite k-point grid,
  this material is metallic within the approximate finite broadening function (occupation_type)
  applied to determine the occupation numbers.
  Calculating total energy contributions from superposition of free atom densities.

  Total energy components:
  | Sum of eigenvalues            :        -757.19805257 Ha      -20604.40735120 eV
  | XC energy correction          :         -56.05461999 Ha       -1525.32381758 eV
  | XC potential correction       :          72.75746583 Ha        1979.83137801 eV
  | Free-atom electrostatic energy:        -537.16788859 Ha      -14617.08195743 eV
  | Hartree energy correction     :          -0.00000000 Ha          -0.00000000 eV
  | Entropy correction            :          -0.00007522 Ha          -0.00204691 eV
  | ---------------------------
  | Total energy                  :       -1277.66309532 Ha      -34766.98174820 eV
  | Total energy, T -> 0          :       -1277.66317054 Ha      -34766.98379511 eV  <-- do not rely on this value for anything but (periodic) metals
  | Electronic free energy        :       -1277.66324576 Ha      -34766.98584202 eV

  Derived energy quantities:
  | Kinetic energy                :        1293.32503689 Ha       35193.16486216 eV
  | Electrostatic energy          :       -2514.93351221 Ha      -68434.82279278 eV
  | Energy correction for multipole
  | error in Hartree potential    :           0.00000000 Ha           0.00000000 eV
  | Sum of eigenvalues per atom                           :      -20604.40735120 eV
  | Total energy (T->0) per atom                          :      -34766.98379511 eV  <-- do not rely on this value for anything but (periodic) metals
  | Electronic free energy per atom                       :      -34766.98584202 eV
  Initialize hartree_potential_storage
  Max. number of atoms included in rho_multipole:            1

  End scf initialization - timings             :  max(cpu_time)    wall_clock(cpu1)
  | Time for scf. initialization               :        5.906 s           7.255 s
  | Boundary condition initialization          :        0.172 s           0.194 s
  | Integration                                :        4.766 s           5.713 s
  | Solution of K.-S. eqns.                    :        0.484 s           0.752 s
  | Grid partitioning                          :        0.078 s           0.072 s
  | Preloading free-atom quantities on grid    :        0.359 s           0.398 s
  | Free-atom superposition energy             :        0.047 s           0.080 s
  | Total energy evaluation                    :        0.016 s           0.028 s

  Partial memory accounting:
  | Current value for overall tracked memory usage:
  |   Minimum:        6.141 MB (on task 0)
  |   Maximum:        6.141 MB (on task 0)
  |   Average:        6.141 MB
  | Peak value for overall tracked memory usage:
  |   Minimum:       26.908 MB (on task 0 after allocating wave)
  |   Maximum:       27.387 MB (on task 1 after allocating wave)
  |   Average:       27.148 MB
  | Largest tracked array allocation so far:
  |   Minimum:       14.341 MB (hamiltonian_shell on task 0)
  |   Maximum:       14.741 MB (hamiltonian_shell on task 1)
  |   Average:       14.541 MB
  Note:  These values currently only include a subset of arrays which are explicitly tracked.
  The "true" memory usage will be greater.
------------------------------------------------------------

------------------------------------------------------------
          Begin self-consistency iteration #    1

  Date     :  20201110, Time     :  181327.865
------------------------------------------------------------
  Evaluating new KS density using the density matrix
  Evaluating density matrix
  Evaluating density matrix
  Time summed over all CPUs for getting density from density matrix: real work       13.680 s, elapsed       13.721 s
  Integration grid: deviation in total charge (<rho> - N_e) =  -4.618528E-13
  | <rho_up-rho_dn> = N_up-N_dn =      2.0000; <|rho_up-rho_dn|> =      2.0350
  Pulay mixing of updated and previous charge densities.
  Renormalizing the density to the exact electron count on the 3D integration grid.
  | Formal number of electrons (from input files) :      26.0000000000
  | Integrated number of electrons on 3D grid     :      26.0000588264
  | Charge integration error                      :       0.0000588264
  | Normalization factor for density and gradient :       0.9999977375

  Evaluating partitioned Hartree potential by multipole expansion.
  | Original multipole sum: apparent total charge =   0.208999E-13
  | Sum of charges compensated after spline to logarithmic grids =   0.521066E-07
  | Analytical far-field extrapolation by fixed multipoles:
  | Hartree multipole sum: apparent total charge =  -0.000000E+00
  Summing up the Hartree potential.
  Time summed over all CPUs for potential: real work        0.427 s, elapsed        0.428 s
  | RMS charge density error from multipole expansion :   0.280148E-04
  | Average real-space part of the electrostatic potential :      0.01819217 eV

  Integrating Hamiltonian matrix: batch-based integration.
  Time summed over all CPUs for integration: real work        6.497 s, elapsed        6.521 s

  Updating Kohn-Sham eigenvalues and eigenvectors using ELSI and the (modified) LAPACK eigensolver.
  Starting LAPACK eigensolver
  Finished Cholesky decomposition
  | Time :     0.000 s
  Finished transformation to standard eigenproblem
  | Time :     0.000 s
  Finished solving standard eigenproblem
  | Time :     0.001 s
  Finished back-transformation of eigenvectors
  | Time :     0.000 s
  Fixed spin moments - chemical potentials:
  | Chemical potential, spin up:   -8.6724239058 eV.
  | Chemical potential, spin dn:   -8.2421235433 eV.
  | Fixed spin moment: Difference in chemical potentials between spin channels:  -0.4303003626 eV.

  Writing Kohn-Sham eigenvalues.

  Spin-up eigenvalues:
  K-point:       1 at    0.000000    0.000000    0.000000 (in units of recip. lattice)

  State    Occupation    Eigenvalue [Ha]    Eigenvalue [eV]
      1       1.00000        -259.380889        -7058.11309
      2       1.00000         -30.202998         -821.86539
      3       1.00000         -25.732941         -700.22896
      4       1.00000         -25.732941         -700.22896
      5       1.00000         -25.732941         -700.22896
      6       1.00000          -3.536690          -96.23824
      7       1.00000          -2.280791          -62.06347
      8       1.00000          -2.280791          -62.06347
      9       1.00000          -2.280791          -62.06347
     10       1.00000          -0.648250          -17.63977
     11       1.00000          -0.396729          -10.79556
     12       1.00000          -0.396727          -10.79548
     13       1.00000          -0.396726          -10.79546
     14       1.00000          -0.338844           -9.22041
     15       1.00000          -0.338843           -9.22038
     16       0.00000           0.807751           21.98004
     17       0.00000           0.807885           21.98367
     18       0.00000           0.832920           22.66490
     19       0.00000           0.832999           22.66706

  Spin-down eigenvalues:
  K-point:       1 at    0.000000    0.000000    0.000000 (in units of recip. lattice)

  State    Occupation    Eigenvalue [Ha]    Eigenvalue [eV]
      1       1.00000        -259.380999        -7058.11610
      2       1.00000         -30.168524         -820.92730
      3       1.00000         -25.706828         -699.51839
      4       1.00000         -25.706828         -699.51839
      5       1.00000         -25.706828         -699.51839
      6       1.00000          -3.458727          -94.11675
      7       1.00000          -2.204144          -59.97780
      8       1.00000          -2.204143          -59.97780
      9       1.00000          -2.204143          -59.97780
     10       1.00000          -0.628489          -17.10207
     11       1.00000          -0.330766           -9.00059
     12       1.00000          -0.330761           -9.00047
     13       1.00000          -0.330760           -9.00045
     14       0.00000          -0.268610           -7.30925
     15       0.00000          -0.268608           -7.30921
     16       0.00000           0.833718           22.68661
     17       0.00000           0.833852           22.69028
     18       0.00000           0.859881           23.39855
     19       0.00000           0.859962           23.40075

  Current spin moment of the entire structure :
  | N = N_up - N_down (sum over all k points):         2.00000
  | S (sum over all k points)                :         1.00000

  What follows are estimated values for band gap, HOMO, LUMO, etc.
  | They are estimated on a discrete k-point grid and not necessarily exact.
  | For converged numbers, create a DOS and/or band structure plot on a denser k-grid.

  Highest occupied state (VBM) at     -8.34778742 eV (relative to internal zero)
  | Occupation number:      0.93245306
  | K-point:      48 at    0.166667    0.166667    0.833333 (in units of recip. lattice)
  | Spin channel:        2

  Lowest unoccupied state (CBM) at    -8.59208135 eV (relative to internal zero)
  | Occupation number:      0.12793324
  | K-point:     105 at    0.333333    0.833333    0.333333 (in units of recip. lattice)
  | Spin channel:        1

  ESTIMATED overall HOMO-LUMO gap:     -0.24429394 eV between HOMO at k-point 48 and LUMO at k-point 105
  | This appears to be an indirect band gap.
  | Smallest direct gap :      0.57285689 eV for k_point 19 at    0.000000    0.500000    0.000000 (in units of recip. lattice)
  | Direct gap HOMO spin channel :     1
  | Direct gap LUMO spin channel :     1
  However, this system has fractional occupation numbers. Since we use a finite k-point grid,
  this material is metallic within the approximate finite broadening function (occupation_type)
  applied to determine the occupation numbers.

  Total energy components:
  | Sum of eigenvalues            :        -757.12893258 Ha      -20602.52650043 eV
  | XC energy correction          :         -56.05220729 Ha       -1525.25816456 eV
  | XC potential correction       :          72.75431190 Ha        1979.74555510 eV
  | Free-atom electrostatic energy:        -537.16788859 Ha      -14617.08195743 eV
  | Hartree energy correction     :          -0.06898677 Ha          -1.87722565 eV
  | Entropy correction            :          -0.00007414 Ha          -0.00201747 eV
  | ---------------------------
  | Total energy                  :       -1277.66370333 Ha      -34766.99829297 eV
  | Total energy, T -> 0          :       -1277.66377747 Ha      -34767.00031044 eV  <-- do not rely on this value for anything but (periodic) metals
  | Electronic free energy        :       -1277.66385161 Ha      -34767.00232792 eV

  Derived energy quantities:
  | Kinetic energy                :        1293.32256282 Ha       35193.09753934 eV
  | Electrostatic energy          :       -2514.93405886 Ha      -68434.83766775 eV
  | Energy correction for multipole
  | error in Hartree potential    :          -0.00000487 Ha          -0.00013244 eV
  | Sum of eigenvalues per atom                           :      -20602.52650043 eV
  | Total energy (T->0) per atom                          :      -34767.00031044 eV  <-- do not rely on this value for anything but (periodic) metals
  | Electronic free energy per atom                       :      -34767.00232792 eV

  Self-consistency convergence accuracy:
  | Change of charge/spin density :  0.8283E-01  0.1182E+00
  | Change of sum of eigenvalues  :  0.1881E+01 eV
  | Change of total energy        : -0.1654E-01 eV

  End self-consistency iteration #     1       :  max(cpu_time)    wall_clock(cpu1)
  | Time for this iteration                    :       10.250 s          11.229 s
  | Charge density update                      :        6.484 s           7.117 s
  | Density mixing & preconditioning           :        0.281 s           0.324 s
  | Hartree multipole update                   :        0.016 s           0.008 s
  | Hartree multipole summation                :        0.219 s           0.217 s
  | Integration                                :        3.016 s           3.273 s
  | Solution of K.-S. eqns.                    :        0.281 s           0.284 s
  | Total energy evaluation                    :        0.000 s           0.002 s

  Partial memory accounting:
  | Current value for overall tracked memory usage:
  |   Minimum:        6.141 MB (on task 0)
  |   Maximum:        6.141 MB (on task 0)
  |   Average:        6.141 MB
  | Peak value for overall tracked memory usage:
  |   Minimum:       28.271 MB (on task 0 after allocating KS_scaled_cmplx)
  |   Maximum:       28.764 MB (on task 1 after allocating KS_scaled_cmplx)
  |   Average:       28.518 MB
  | Largest tracked array allocation so far:
  |   Minimum:       14.341 MB (hamiltonian_shell on task 0)
  |   Maximum:       14.741 MB (hamiltonian_shell on task 1)
  |   Average:       14.541 MB
  Note:  These values currently only include a subset of arrays which are explicitly tracked.
  The "true" memory usage will be greater.
------------------------------------------------------------

------------------------------------------------------------
          Begin self-consistency iteration #    2

  Date     :  20201110, Time     :  181339.096
------------------------------------------------------------
  Evaluating new KS density using the density matrix
  Evaluating density matrix
  Evaluating density matrix
  Time summed over all CPUs for getting density from density matrix: real work       14.232 s, elapsed       14.312 s
  Integration grid: deviation in total charge (<rho> - N_e) =  -6.501466E-13
  | <rho_up-rho_dn> = N_up-N_dn =      2.0000; <|rho_up-rho_dn|> =      2.0349
  Pulay mixing of updated and previous charge densities.
  Renormalizing the density to the exact electron count on the 3D integration grid.
  | Formal number of electrons (from input files) :      26.0000000000
  | Integrated number of electrons on 3D grid     :      25.9997642029
  | Charge integration error                      :      -0.0002357971
  | Normalization factor for density and gradient :       1.0000090692

  Evaluating partitioned Hartree potential by multipole expansion.
  | Original multipole sum: apparent total charge =   0.162839E-13
  | Sum of charges compensated after spline to logarithmic grids =   0.101037E-06
  | Analytical far-field extrapolation by fixed multipoles:
  | Hartree multipole sum: apparent total charge =  -0.000000E+00
  Summing up the Hartree potential.
  Time summed over all CPUs for potential: real work        0.682 s, elapsed        0.695 s
  | RMS charge density error from multipole expansion :   0.164179E-03
  | Average real-space part of the electrostatic potential :      0.04897657 eV

  Integrating Hamiltonian matrix: batch-based integration.
  Time summed over all CPUs for integration: real work        9.317 s, elapsed        9.327 s

  Updating Kohn-Sham eigenvalues and eigenvectors using ELSI and the (modified) LAPACK eigensolver.
  Starting LAPACK eigensolver
  Finished Cholesky decomposition
  | Time :     0.000 s
  Finished transformation to standard eigenproblem
  | Time :     0.000 s
  Finished solving standard eigenproblem
  | Time :     0.000 s
  Finished back-transformation of eigenvectors
  | Time :     0.001 s
  Fixed spin moments - chemical potentials:
  | Chemical potential, spin up:   -8.5646018885 eV.
  | Chemical potential, spin dn:   -8.1444695768 eV.
  | Fixed spin moment: Difference in chemical potentials between spin channels:  -0.4201323117 eV.

  Current spin moment of the entire structure :
  | N = N_up - N_down (sum over all k points):         2.00000
  | S (sum over all k points)                :         1.00000

  What follows are estimated values for band gap, HOMO, LUMO, etc.
  | They are estimated on a discrete k-point grid and not necessarily exact.
  | For converged numbers, create a DOS and/or band structure plot on a denser k-grid.

  Highest occupied state (VBM) at     -8.24379735 eV (relative to internal zero)
  | Occupation number:      0.91994577
  | K-point:      48 at    0.166667    0.166667    0.833333 (in units of recip. lattice)
  | Spin channel:        2

  Lowest unoccupied state (CBM) at    -8.48468894 eV (relative to internal zero)
  | Occupation number:      0.12920867
  | K-point:     105 at    0.333333    0.833333    0.333333 (in units of recip. lattice)
  | Spin channel:        1

  ESTIMATED overall HOMO-LUMO gap:     -0.24089159 eV between HOMO at k-point 48 and LUMO at k-point 105
  | This appears to be an indirect band gap.
  | Smallest direct gap :      0.44984799 eV for k_point 19 at    0.000000    0.500000    0.000000 (in units of recip. lattice)
  | Direct gap HOMO spin channel :     1
  | Direct gap LUMO spin channel :     1
  However, this system has fractional occupation numbers. Since we use a finite k-point grid,
  this material is metallic within the approximate finite broadening function (occupation_type)
  applied to determine the occupation numbers.

  Total energy components:
  | Sum of eigenvalues            :        -756.96839308 Ha      -20598.15799843 eV
  | XC energy correction          :         -56.06262860 Ha       -1525.54174290 eV
  | XC potential correction       :          72.76793210 Ha        1980.11617966 eV
  | Free-atom electrostatic energy:        -537.16788859 Ha      -14617.08195743 eV
  | Hartree energy correction     :          -0.23334238 Ha          -6.34956915 eV
  | Entropy correction            :          -0.00008338 Ha          -0.00226890 eV
  | ---------------------------
  | Total energy                  :       -1277.66432054 Ha      -34767.01508825 eV
  | Total energy, T -> 0          :       -1277.66440392 Ha      -34767.01735715 eV  <-- do not rely on this value for anything but (periodic) metals
  | Electronic free energy        :       -1277.66448730 Ha      -34767.01962604 eV

  Derived energy quantities:
  | Kinetic energy                :        1293.45968322 Ha       35196.82877540 eV
  | Electrostatic energy          :       -2515.06137517 Ha      -68438.30212075 eV
  | Energy correction for multipole
  | error in Hartree potential    :          -0.00002261 Ha          -0.00061522 eV
  | Sum of eigenvalues per atom                           :      -20598.15799843 eV
  | Total energy (T->0) per atom                          :      -34767.01735715 eV  <-- do not rely on this value for anything but (periodic) metals
  | Electronic free energy per atom                       :      -34767.01962604 eV

  Self-consistency convergence accuracy:
  | Change of charge/spin density :  0.8796E-01  0.1162E+00
  | Change of sum of eigenvalues  :  0.4369E+01 eV
  | Change of total energy        : -0.1680E-01 eV

  End self-consistency iteration #     2       :  max(cpu_time)    wall_clock(cpu1)
  | Time for this iteration                    :       10.859 s          13.300 s
  | Charge density update                      :        6.375 s           7.418 s
  | Density mixing & preconditioning           :        0.312 s           0.397 s
  | Hartree multipole update                   :        0.000 s           0.001 s
  | Hartree multipole summation                :        0.266 s           0.350 s
  | Integration                                :        3.500 s           4.671 s
  | Solution of K.-S. eqns.                    :        0.438 s           0.461 s
  | Total energy evaluation                    :        0.000 s           0.001 s

  Partial memory accounting:
  | Current value for overall tracked memory usage:
  |   Minimum:        6.141 MB (on task 0)
  |   Maximum:        6.141 MB (on task 0)
  |   Average:        6.141 MB
  | Peak value for overall tracked memory usage:
  |   Minimum:       28.271 MB (on task 0 after allocating KS_scaled_cmplx)
  |   Maximum:       28.764 MB (on task 1 after allocating KS_scaled_cmplx)
  |   Average:       28.518 MB
  | Largest tracked array allocation so far:
  |   Minimum:       14.341 MB (hamiltonian_shell on task 0)
  |   Maximum:       14.741 MB (hamiltonian_shell on task 1)
  |   Average:       14.541 MB
  Note:  These values currently only include a subset of arrays which are explicitly tracked.
  The "true" memory usage will be greater.
------------------------------------------------------------

------------------------------------------------------------
          Begin self-consistency iteration #    3

  Date     :  20201110, Time     :  181352.400
------------------------------------------------------------
  Evaluating new KS density using the density matrix
  Evaluating density matrix
  Evaluating density matrix
  Time summed over all CPUs for getting density from density matrix: real work       16.175 s, elapsed       16.394 s
  Integration grid: deviation in total charge (<rho> - N_e) =  -4.014566E-13
  | <rho_up-rho_dn> = N_up-N_dn =      2.0000; <|rho_up-rho_dn|> =      2.0314
  Pulay mixing of updated and previous charge densities.
  Renormalizing the density to the exact electron count on the 3D integration grid.
  | Formal number of electrons (from input files) :      26.0000000000
  | Integrated number of electrons on 3D grid     :      26.0041632440
  | Charge integration error                      :       0.0041632440
  | Normalization factor for density and gradient :       0.9998399009

  Evaluating partitioned Hartree potential by multipole expansion.
  | Original multipole sum: apparent total charge =  -0.344022E-13
  | Sum of charges compensated after spline to logarithmic grids =  -0.697282E-06
  | Analytical far-field extrapolation by fixed multipoles:
  | Hartree multipole sum: apparent total charge =  -0.000000E+00
  Summing up the Hartree potential.
  Time summed over all CPUs for potential: real work        0.592 s, elapsed        0.602 s
  | RMS charge density error from multipole expansion :   0.291726E-02
  | Average real-space part of the electrostatic potential :     -0.47994735 eV

  Integrating Hamiltonian matrix: batch-based integration.
  Time summed over all CPUs for integration: real work        7.527 s, elapsed        7.540 s

  Updating Kohn-Sham eigenvalues and eigenvectors using ELSI and the (modified) LAPACK eigensolver.
  Starting LAPACK eigensolver
  Finished Cholesky decomposition
  | Time :     0.000 s
  Finished transformation to standard eigenproblem
  | Time :     0.000 s
  Finished solving standard eigenproblem
  | Time :     0.000 s
  Finished back-transformation of eigenvectors
  | Time :     0.000 s
  Fixed spin moments - chemical potentials:
  | Chemical potential, spin up:  -10.4000474986 eV.
  | Chemical potential, spin dn:   -9.7049720578 eV.
  | Fixed spin moment: Difference in chemical potentials between spin channels:  -0.6950754408 eV.

  Current spin moment of the entire structure :
  | N = N_up - N_down (sum over all k points):         2.00000
  | S (sum over all k points)                :         1.00000

  What follows are estimated values for band gap, HOMO, LUMO, etc.
  | They are estimated on a discrete k-point grid and not necessarily exact.
  | For converged numbers, create a DOS and/or band structure plot on a denser k-grid.

  Highest occupied state (VBM) at     -9.70964308 eV (relative to internal zero)
  | Occupation number:      0.52633425
  | K-point:      48 at    0.166667    0.166667    0.833333 (in units of recip. lattice)
  | Spin channel:        2

  Lowest unoccupied state (CBM) at   -10.34935847 eV (relative to internal zero)
  | Occupation number:      0.23673297
  | K-point:     201 at    0.833333    0.500000    0.333333 (in units of recip. lattice)
  | Spin channel:        1

  ESTIMATED overall HOMO-LUMO gap:     -0.63971539 eV between HOMO at k-point 48 and LUMO at k-point 201
  | This appears to be an indirect band gap.
  | Smallest direct gap :      0.45694295 eV for k_point 195 at    0.833333    0.333333    0.333333 (in units of recip. lattice)
  | Direct gap HOMO spin channel :     2
  | Direct gap LUMO spin channel :     1
  However, this system has fractional occupation numbers. Since we use a finite k-point grid,
  this material is metallic within the approximate finite broadening function (occupation_type)
  applied to determine the occupation numbers.

  Checking to see if s.c.f. parameters should be adjusted.

  Total energy components:
  | Sum of eigenvalues            :        -759.73974435 Ha      -20673.57030349 eV
  | XC energy correction          :         -55.88948504 Ha       -1520.83026706 eV
  | XC potential correction       :          72.54089810 Ha        1973.93827012 eV
  | Free-atom electrostatic energy:        -537.16788859 Ha      -14617.08195743 eV
  | Hartree energy correction     :           2.57733656 Ha          70.13289620 eV
  | Entropy correction            :          -0.00012592 Ha          -0.00342649 eV
  | ---------------------------
  | Total energy                  :       -1277.67888332 Ha      -34767.41136167 eV
  | Total energy, T -> 0          :       -1277.67900925 Ha      -34767.41478815 eV  <-- do not rely on this value for anything but (periodic) metals
  | Electronic free energy        :       -1277.67913517 Ha      -34767.41821464 eV

  Derived energy quantities:
  | Kinetic energy                :        1291.07360726 Ha       35131.90034482 eV
  | Electrostatic energy          :       -2512.86300553 Ha      -68378.48143943 eV
  | Energy correction for multipole
  | error in Hartree potential    :           0.00029817 Ha           0.00811373 eV
  | Sum of eigenvalues per atom                           :      -20673.57030349 eV
  | Total energy (T->0) per atom                          :      -34767.41478815 eV  <-- do not rely on this value for anything but (periodic) metals
  | Electronic free energy per atom                       :      -34767.41821464 eV

  Self-consistency convergence accuracy:
  | Change of charge/spin density :  0.1050E+00  0.1220E+00
  | Change of sum of eigenvalues  : -0.7541E+02 eV
  | Change of total energy        : -0.3963E+00 eV

  End self-consistency iteration #     3       :  max(cpu_time)    wall_clock(cpu1)
  | Time for this iteration                    :       11.141 s          13.230 s
  | Charge density update                      :        6.875 s           8.446 s
  | Density mixing & preconditioning           :        0.281 s           0.305 s
  | Hartree multipole update                   :        0.000 s           0.001 s
  | Hartree multipole summation                :        0.297 s           0.312 s
  | Integration                                :        3.328 s           3.782 s
  | Solution of K.-S. eqns.                    :        0.359 s           0.380 s
  | Total energy evaluation                    :        0.000 s           0.000 s

  Partial memory accounting:
  | Current value for overall tracked memory usage:
  |   Minimum:        6.141 MB (on task 0)
  |   Maximum:        6.141 MB (on task 0)
  |   Average:        6.141 MB
  | Peak value for overall tracked memory usage:
  |   Minimum:       28.272 MB (on task 0 after allocating KS_scaled_cmplx)
  |   Maximum:       28.765 MB (on task 1 after allocating KS_scaled_cmplx)
  |   Average:       28.518 MB
  | Largest tracked array allocation so far:
  |   Minimum:       14.341 MB (hamiltonian_shell on task 0)
  |   Maximum:       14.741 MB (hamiltonian_shell on task 1)
  |   Average:       14.541 MB
  Note:  These values currently only include a subset of arrays which are explicitly tracked.
  The "true" memory usage will be greater.
------------------------------------------------------------

------------------------------------------------------------
          Begin self-consistency iteration #    4

  Date     :  20201110, Time     :  181405.632
------------------------------------------------------------
  Evaluating new KS density using the density matrix
  Evaluating density matrix
  Evaluating density matrix
  Time summed over all CPUs for getting density from density matrix: real work       14.148 s, elapsed       14.192 s
  Integration grid: deviation in total charge (<rho> - N_e) =  -6.146195E-13
  | <rho_up-rho_dn> = N_up-N_dn =      2.0000; <|rho_up-rho_dn|> =      2.0970
  Pulay mixing of updated and previous charge densities.
  Renormalizing the density to the exact electron count on the 3D integration grid.
  | Formal number of electrons (from input files) :      26.0000000000
  | Integrated number of electrons on 3D grid     :      26.0001540276
  | Charge integration error                      :       0.0001540276
  | Normalization factor for density and gradient :       0.9999940759

  Evaluating partitioned Hartree potential by multipole expansion.
  | Original multipole sum: apparent total charge =  -0.460939E-14
  | Sum of charges compensated after spline to logarithmic grids =  -0.688686E-06
  | Analytical far-field extrapolation by fixed multipoles:
  | Hartree multipole sum: apparent total charge =  -0.000000E+00
  Summing up the Hartree potential.
  Time summed over all CPUs for potential: real work        0.581 s, elapsed        0.602 s
  | RMS charge density error from multipole expansion :   0.295553E-02
  | Average real-space part of the electrostatic potential :     -0.47764547 eV

  Integrating Hamiltonian matrix: batch-based integration.
  Time summed over all CPUs for integration: real work        7.844 s, elapsed        7.913 s

  Updating Kohn-Sham eigenvalues and eigenvectors using ELSI and the (modified) LAPACK eigensolver.
  Starting LAPACK eigensolver
  Finished Cholesky decomposition
  | Time :     0.000 s
  Finished transformation to standard eigenproblem
  | Time :     0.001 s
  Finished solving standard eigenproblem
  | Time :     0.000 s
  Finished back-transformation of eigenvectors
  | Time :     0.001 s
  Fixed spin moments - chemical potentials:
  | Chemical potential, spin up:  -10.3844644116 eV.
  | Chemical potential, spin dn:   -9.6862715612 eV.
  | Fixed spin moment: Difference in chemical potentials between spin channels:  -0.6981928504 eV.

  Current spin moment of the entire structure :
  | N = N_up - N_down (sum over all k points):         2.00000
  | S (sum over all k points)                :         1.00000

  What follows are estimated values for band gap, HOMO, LUMO, etc.
  | They are estimated on a discrete k-point grid and not necessarily exact.
  | For converged numbers, create a DOS and/or band structure plot on a denser k-grid.

  Highest occupied state (VBM) at    -10.04386307 eV (relative to internal zero)
  | Occupation number:      0.99999979
  | K-point:       2 at    0.000000    0.000000    0.166667 (in units of recip. lattice)
  | Spin channel:        2

  Lowest unoccupied state (CBM) at   -10.33350604 eV (relative to internal zero)
  | Occupation number:      0.23555931
  | K-point:      59 at    0.166667    0.500000    0.666667 (in units of recip. lattice)
  | Spin channel:        1

  ESTIMATED overall HOMO-LUMO gap:     -0.28964298 eV between HOMO at k-point 2 and LUMO at k-point 59
  | This appears to be an indirect band gap.
  | Smallest direct gap :      0.36058824 eV for k_point 68 at    0.166667    0.833333    0.166667 (in units of recip. lattice)
  | Direct gap HOMO spin channel :     2
  | Direct gap LUMO spin channel :     2
  However, this system has fractional occupation numbers. Since we use a finite k-point grid,
  this material is metallic within the approximate finite broadening function (occupation_type)
  applied to determine the occupation numbers.

  Total energy components:
  | Sum of eigenvalues            :        -759.71983463 Ha      -20673.02853249 eV
  | XC energy correction          :         -55.89141062 Ha       -1520.88266453 eV
  | XC potential correction       :          72.54331541 Ha        1974.00404840 eV
  | Free-atom electrostatic energy:        -537.16788859 Ha      -14617.08195743 eV
  | Hartree energy correction     :           2.55722844 Ha          69.58572627 eV
  | Entropy correction            :          -0.00012732 Ha          -0.00346455 eV
  | ---------------------------
  | Total energy                  :       -1277.67859000 Ha      -34767.40337978 eV
  | Total energy, T -> 0          :       -1277.67871732 Ha      -34767.40684433 eV  <-- do not rely on this value for anything but (periodic) metals
  | Electronic free energy        :       -1277.67884463 Ha      -34767.41030887 eV

  Derived energy quantities:
  | Kinetic energy                :        1291.08389351 Ha       35132.18024795 eV
  | Electrostatic energy          :       -2512.87107288 Ha      -68378.70096320 eV
  | Energy correction for multipole
  | error in Hartree potential    :           0.00029830 Ha           0.00811721 eV
  | Sum of eigenvalues per atom                           :      -20673.02853249 eV
  | Total energy (T->0) per atom                          :      -34767.40684433 eV  <-- do not rely on this value for anything but (periodic) metals
  | Electronic free energy per atom                       :      -34767.41030887 eV

  Self-consistency convergence accuracy:
  | Change of charge/spin density :  0.2068E+00  0.4816E-01
  | Change of sum of eigenvalues  :  0.5418E+00 eV
  | Change of total energy        :  0.7982E-02 eV

  End self-consistency iteration #     4       :  max(cpu_time)    wall_clock(cpu1)
  | Time for this iteration                    :       10.391 s          12.351 s
  | Charge density update                      :        6.078 s           7.343 s
  | Density mixing & preconditioning           :        0.281 s           0.328 s
  | Hartree multipole update                   :        0.000 s           0.001 s
  | Hartree multipole summation                :        0.297 s           0.305 s
  | Integration                                :        3.453 s           3.964 s
  | Solution of K.-S. eqns.                    :        0.359 s           0.407 s
  | Total energy evaluation                    :        0.016 s           0.001 s

  Partial memory accounting:
  | Current value for overall tracked memory usage:
  |   Minimum:        6.141 MB (on task 0)
  |   Maximum:        6.141 MB (on task 0)
  |   Average:        6.141 MB
  | Peak value for overall tracked memory usage:
  |   Minimum:       28.272 MB (on task 0 after allocating KS_scaled_cmplx)
  |   Maximum:       28.765 MB (on task 1 after allocating KS_scaled_cmplx)
  |   Average:       28.518 MB
  | Largest tracked array allocation so far:
  |   Minimum:       14.341 MB (hamiltonian_shell on task 0)
  |   Maximum:       14.741 MB (hamiltonian_shell on task 1)
  |   Average:       14.541 MB
  Note:  These values currently only include a subset of arrays which are explicitly tracked.
  The "true" memory usage will be greater.
------------------------------------------------------------

------------------------------------------------------------
          Begin self-consistency iteration #    5

  Date     :  20201110, Time     :  181417.985
------------------------------------------------------------
  Evaluating new KS density using the density matrix
  Evaluating density matrix
  Evaluating density matrix
  Time summed over all CPUs for getting density from density matrix: real work       14.591 s, elapsed       14.753 s
  Integration grid: deviation in total charge (<rho> - N_e) =  -3.872458E-13
  | <rho_up-rho_dn> = N_up-N_dn =      2.0000; <|rho_up-rho_dn|> =      2.0989
  Pulay mixing of updated and previous charge densities.
  Renormalizing the density to the exact electron count on the 3D integration grid.
  | Formal number of electrons (from input files) :      26.0000000000
  | Integrated number of electrons on 3D grid     :      26.0004977489
  | Charge integration error                      :       0.0004977489
  | Normalization factor for density and gradient :       0.9999808562

  Evaluating partitioned Hartree potential by multipole expansion.
  | Original multipole sum: apparent total charge =   0.241346E-13
  | Sum of charges compensated after spline to logarithmic grids =   0.154420E-06
  | Analytical far-field extrapolation by fixed multipoles:
  | Hartree multipole sum: apparent total charge =  -0.000000E+00
  Summing up the Hartree potential.
  Time summed over all CPUs for potential: real work        0.654 s, elapsed        0.660 s
  | RMS charge density error from multipole expansion :   0.175542E-02
  | Average real-space part of the electrostatic potential :     -0.00267462 eV

  Integrating Hamiltonian matrix: batch-based integration.
  Time summed over all CPUs for integration: real work        7.519 s, elapsed        7.577 s

  Updating Kohn-Sham eigenvalues and eigenvectors using ELSI and the (modified) LAPACK eigensolver.
  Starting LAPACK eigensolver
  Finished Cholesky decomposition
  | Time :     0.000 s
  Finished transformation to standard eigenproblem
  | Time :     0.000 s
  Finished solving standard eigenproblem
  | Time :     0.000 s
  Finished back-transformation of eigenvectors
  | Time :     0.000 s
  Fixed spin moments - chemical potentials:
  | Chemical potential, spin up:   -8.5580596262 eV.
  | Chemical potential, spin dn:   -8.1045394069 eV.
  | Fixed spin moment: Difference in chemical potentials between spin channels:  -0.4535202192 eV.

  Current spin moment of the entire structure :
  | N = N_up - N_down (sum over all k points):         2.00000
  | S (sum over all k points)                :         1.00000

  What follows are estimated values for band gap, HOMO, LUMO, etc.
  | They are estimated on a discrete k-point grid and not necessarily exact.
  | For converged numbers, create a DOS and/or band structure plot on a denser k-grid.

  Highest occupied state (VBM) at     -8.14519371 eV (relative to internal zero)
  | Occupation number:      0.71733361
  | K-point:      48 at    0.166667    0.166667    0.833333 (in units of recip. lattice)
  | Spin channel:        2

  Lowest unoccupied state (CBM) at    -8.48546996 eV (relative to internal zero)
  | Occupation number:      0.15231080
  | K-point:     155 at    0.666667    0.166667    0.666667 (in units of recip. lattice)
  | Spin channel:        1

  ESTIMATED overall HOMO-LUMO gap:     -0.34027625 eV between HOMO at k-point 48 and LUMO at k-point 155
  | This appears to be an indirect band gap.
  | Smallest direct gap :      0.59621348 eV for k_point 102 at    0.333333    0.666667    0.833333 (in units of recip. lattice)
  | Direct gap HOMO spin channel :     1
  | Direct gap LUMO spin channel :     1
  However, this system has fractional occupation numbers. Since we use a finite k-point grid,
  this material is metallic within the approximate finite broadening function (occupation_type)
  applied to determine the occupation numbers.

  Total energy components:
  | Sum of eigenvalues            :        -757.04252727 Ha      -20600.17529233 eV
  | XC energy correction          :         -56.07230380 Ha       -1525.80501849 eV
  | XC potential correction       :          72.77848272 Ha        1980.40327664 eV
  | Free-atom electrostatic energy:        -537.16788859 Ha      -14617.08195743 eV
  | Hartree energy correction     :          -0.16339253 Ha          -4.44613688 eV
  | Entropy correction            :          -0.00008414 Ha          -0.00228965 eV
  | ---------------------------
  | Total energy                  :       -1277.66762946 Ha      -34767.10512849 eV
  | Total energy, T -> 0          :       -1277.66771360 Ha      -34767.10741814 eV  <-- do not rely on this value for anything but (periodic) metals
  | Electronic free energy        :       -1277.66779775 Ha      -34767.10970779 eV

  Derived energy quantities:
  | Kinetic energy                :        1293.21849652 Ha       35190.26575129 eV
  | Electrostatic energy          :       -2514.81382218 Ha      -68431.56586129 eV
  | Energy correction for multipole
  | error in Hartree potential    :           0.00004566 Ha           0.00124244 eV
  | Sum of eigenvalues per atom                           :      -20600.17529233 eV
  | Total energy (T->0) per atom                          :      -34767.10741814 eV  <-- do not rely on this value for anything but (periodic) metals
  | Electronic free energy per atom                       :      -34767.10970779 eV

[...]

  Allocating        0.090 MB for mulliken_decomp

  Spin-orbit-coupled "band gap" along reciprocal space direction number:    5
  | Lowest unoccupied state:      -8.89241791 eV
  | Highest occupied state :      -8.93837923 eV
  | Energy difference      :       0.04596131 eV


  Treating all   31 k-points in band plot segment #   6:


  Scalar-relativistic "band gap" along reciprocal space direction number:    6
  | Lowest unoccupied state:      -8.85713623 eV
  | Highest occupied state :      -8.99782206 eV
  | Energy difference      :       0.14068583 eV

  Allocating        0.090 MB for mulliken_decomp

  Spin-orbit-coupled "band gap" along reciprocal space direction number:    6
  | Lowest unoccupied state:      -8.85596033 eV
  | Highest occupied state :      -8.99649541 eV
  | Energy difference      :       0.14053508 eV


  Treating all   31 k-points in band plot segment #   7:


  Scalar-relativistic "band gap" along reciprocal space direction number:    7
  | Lowest unoccupied state:      -8.85568434 eV
  | Highest occupied state :      -8.91555159 eV
  | Energy difference      :       0.05986725 eV

  Allocating        0.090 MB for mulliken_decomp

  Spin-orbit-coupled "band gap" along reciprocal space direction number:    7
  | Lowest unoccupied state:      -8.91412160 eV
  | Highest occupied state :      -8.94347905 eV
  | Energy difference      :       0.02935745 eV


  Treating all   31 k-points in band plot segment #   8:


  Scalar-relativistic "band gap" along reciprocal space direction number:    8
  | Lowest unoccupied state:      -8.87083234 eV
  | Highest occupied state :      -8.90274329 eV
  | Energy difference      :       0.03191095 eV

  Allocating        0.090 MB for mulliken_decomp

  Spin-orbit-coupled "band gap" along reciprocal space direction number:    8
  | Lowest unoccupied state:      -8.89204992 eV
  | Highest occupied state :      -8.96385392 eV
  | Energy difference      :       0.07180400 eV


  Treating all   31 k-points in band plot segment #   9:


  Scalar-relativistic "band gap" along reciprocal space direction number:    9
  | Lowest unoccupied state:      -8.83484935 eV
  | Highest occupied state :      -8.88303445 eV
  | Energy difference      :       0.04818510 eV

  Allocating        0.090 MB for mulliken_decomp

  Spin-orbit-coupled "band gap" along reciprocal space direction number:    9
  | Lowest unoccupied state:      -8.87918220 eV
  | Highest occupied state :      -8.94918743 eV
  | Energy difference      :       0.07000523 eV


  Treating all   31 k-points in band plot segment #  10:


  Scalar-relativistic "band gap" along reciprocal space direction number:   10
  | Lowest unoccupied state:      -8.81443882 eV
  | Highest occupied state :      -8.91159133 eV
  | Energy difference      :       0.09715251 eV

  Allocating        0.090 MB for mulliken_decomp

  Spin-orbit-coupled "band gap" along reciprocal space direction number:   10
  | Lowest unoccupied state:      -8.90883259 eV
  | Highest occupied state :      -9.05532036 eV
  | Energy difference      :       0.14648776 eV


  Treating all   31 k-points in band plot segment #  11:


  Scalar-relativistic "band gap" along reciprocal space direction number:   11
  | Lowest unoccupied state:      -8.85128092 eV
  | Highest occupied state :      -8.89134056 eV
  | Energy difference      :       0.04005964 eV

  Allocating        0.090 MB for mulliken_decomp

  Spin-orbit-coupled "band gap" along reciprocal space direction number:   11
  | Lowest unoccupied state:      -8.89241791 eV
  | Highest occupied state :      -8.93837923 eV
  | Energy difference      :       0.04596131 eV


  Treating all   31 k-points in band plot segment #  12:


  Scalar-relativistic "band gap" along reciprocal space direction number:   12
  | Lowest unoccupied state:      -8.85713623 eV
  | Highest occupied state :      -8.99782206 eV
  | Energy difference      :       0.14068583 eV

  Allocating        0.090 MB for mulliken_decomp

  Spin-orbit-coupled "band gap" along reciprocal space direction number:   12
  | Lowest unoccupied state:      -8.85596033 eV
  | Highest occupied state :      -8.99649541 eV
  | Energy difference      :       0.14053508 eV

  Scalar-relativistic "band gap" of total set of bands:
  | Lowest unoccupied state:      -8.87083234 eV
  | Highest occupied state :      -8.88303445 eV
  | Energy difference      :       0.01220211 eV

  Spin-orbit-coupled "band gap" of total set of bands:
  | Lowest unoccupied state:      -8.91412160 eV
  | Highest occupied state :      -8.93837923 eV
  | Energy difference      :       0.02425762 eV


  Band Structure                                          :  max(cpu_time) wall_clock(cpu1)
  | Total Time                                            :         37.875           42.793
------------------------------------------------------------

  -------------------------------------------------------------------
  Writing the requested band structure output (LAPACK version):
  -------------------------------------------------------------------

  Integrating Hamiltonian matrix: batch-based integration.
  Time summed over all CPUs for integration: real work        7.319 s, elapsed        7.367 s
  Integrating SOC matrix: batch-based integration p2 version.
  Allocating        0.102 MB for dist_tab
  Allocating        0.102 MB for dist_tab_sq
  Allocating        0.306 MB for dir_tab
  Allocating        0.006 MB for i_basis_fns
  Allocating        0.154 MB for i_basis_fns_inv
  Allocating        0.006 MB for i_atom_fns
  Allocating        3.358 MB for gradient_basis_wave
  Allocating        0.010 MB for ylm_tab
  Allocating        0.002 MB for radial_wave
  Allocating        0.002 MB for radial_wave_deriv
  Allocating        0.012 MB for i_basis
  Allocating       14.341 MB for soc_shell
  Allocating        0.029 MB for cartesians
  Allocating        0.029 MB for sum_gradient
  Allocating        0.058 MB for sum_hessian
  Allocating        0.001 MB for potential_shell

  Treating all   31 k-points in band plot segment #   1:


  Scalar-relativistic "band gap" along reciprocal space direction number:    1
  | Lowest unoccupied state:      -8.85568434 eV
  | Highest occupied state :      -8.91555159 eV
  | Energy difference      :       0.05986725 eV


Spin-orbit-coupled "band gap" along reciprocal space direction number:    1
  | Lowest unoccupied state:      -8.91412160 eV
  | Highest occupied state :      -8.94347905 eV
  | Energy difference      :       0.02935745 eV


  Treating all   31 k-points in band plot segment #   2:


  Scalar-relativistic "band gap" along reciprocal space direction number:    2
  | Lowest unoccupied state:      -8.87083234 eV
  | Highest occupied state :      -8.90274329 eV
  | Energy difference      :       0.03191095 eV


Spin-orbit-coupled "band gap" along reciprocal space direction number:    2
  | Lowest unoccupied state:      -8.89204992 eV
  | Highest occupied state :      -8.96385392 eV
  | Energy difference      :       0.07180400 eV


  Treating all   31 k-points in band plot segment #   3:


  Scalar-relativistic "band gap" along reciprocal space direction number:    3
  | Lowest unoccupied state:      -8.83484935 eV
  | Highest occupied state :      -8.88303445 eV
  | Energy difference      :       0.04818510 eV


Spin-orbit-coupled "band gap" along reciprocal space direction number:    3
  | Lowest unoccupied state:      -8.87918220 eV
  | Highest occupied state :      -8.94918743 eV
  | Energy difference      :       0.07000523 eV


  Treating all   31 k-points in band plot segment #   4:


  Scalar-relativistic "band gap" along reciprocal space direction number:    4
  | Lowest unoccupied state:      -8.81443882 eV
  | Highest occupied state :      -8.91159133 eV
  | Energy difference      :       0.09715251 eV


Spin-orbit-coupled "band gap" along reciprocal space direction number:    4
  | Lowest unoccupied state:      -8.90883259 eV
  | Highest occupied state :      -9.05532036 eV
  | Energy difference      :       0.14648776 eV


  Treating all   31 k-points in band plot segment #   5:


  Scalar-relativistic "band gap" along reciprocal space direction number:    5
  | Lowest unoccupied state:      -8.85128092 eV
  | Highest occupied state :      -8.89134056 eV
  | Energy difference      :       0.04005964 eV


Spin-orbit-coupled "band gap" along reciprocal space direction number:    5
  | Lowest unoccupied state:      -8.89241791 eV
  | Highest occupied state :      -8.93837923 eV
  | Energy difference      :       0.04596131 eV


  Treating all   31 k-points in band plot segment #   6:


  Scalar-relativistic "band gap" along reciprocal space direction number:    6
  | Lowest unoccupied state:      -8.85713623 eV
  | Highest occupied state :      -8.99782206 eV
  | Energy difference      :       0.14068583 eV


Spin-orbit-coupled "band gap" along reciprocal space direction number:    6
  | Lowest unoccupied state:      -8.85596033 eV
  | Highest occupied state :      -8.99649541 eV
  | Energy difference      :       0.14053508 eV


  Treating all   31 k-points in band plot segment #   7:


  Scalar-relativistic "band gap" along reciprocal space direction number:    7
  | Lowest unoccupied state:      -8.85568434 eV
  | Highest occupied state :      -8.91555159 eV
  | Energy difference      :       0.05986725 eV


Spin-orbit-coupled "band gap" along reciprocal space direction number:    7
  | Lowest unoccupied state:      -8.91412160 eV
  | Highest occupied state :      -8.94347905 eV
  | Energy difference      :       0.02935745 eV


  Treating all   31 k-points in band plot segment #   8:


  Scalar-relativistic "band gap" along reciprocal space direction number:    8
  | Lowest unoccupied state:      -8.87083234 eV
  | Highest occupied state :      -8.90274329 eV
  | Energy difference      :       0.03191095 eV


Spin-orbit-coupled "band gap" along reciprocal space direction number:    8
  | Lowest unoccupied state:      -8.89204992 eV
  | Highest occupied state :      -8.96385392 eV
  | Energy difference      :       0.07180400 eV


  Treating all   31 k-points in band plot segment #   9:


  Scalar-relativistic "band gap" along reciprocal space direction number:    9
  | Lowest unoccupied state:      -8.83484935 eV
  | Highest occupied state :      -8.88303445 eV
  | Energy difference      :       0.04818510 eV


Spin-orbit-coupled "band gap" along reciprocal space direction number:    9
  | Lowest unoccupied state:      -8.87918220 eV
  | Highest occupied state :      -8.94918743 eV
  | Energy difference      :       0.07000523 eV


  Treating all   31 k-points in band plot segment #  10:


  Scalar-relativistic "band gap" along reciprocal space direction number:   10
  | Lowest unoccupied state:      -8.81443882 eV
  | Highest occupied state :      -8.91159133 eV
  | Energy difference      :       0.09715251 eV


Spin-orbit-coupled "band gap" along reciprocal space direction number:   10
  | Lowest unoccupied state:      -8.90883259 eV
  | Highest occupied state :      -9.05532036 eV
  | Energy difference      :       0.14648776 eV


  Treating all   31 k-points in band plot segment #  11:


  Scalar-relativistic "band gap" along reciprocal space direction number:   11
  | Lowest unoccupied state:      -8.85128092 eV
  | Highest occupied state :      -8.89134056 eV
  | Energy difference      :       0.04005964 eV


Spin-orbit-coupled "band gap" along reciprocal space direction number:   11
  | Lowest unoccupied state:      -8.89241791 eV
  | Highest occupied state :      -8.93837923 eV
  | Energy difference      :       0.04596131 eV


  Treating all   31 k-points in band plot segment #  12:


  Scalar-relativistic "band gap" along reciprocal space direction number:   12
  | Lowest unoccupied state:      -8.85713623 eV
  | Highest occupied state :      -8.99782206 eV
  | Energy difference      :       0.14068583 eV


Spin-orbit-coupled "band gap" along reciprocal space direction number:   12
  | Lowest unoccupied state:      -8.85596033 eV
  | Highest occupied state :      -8.99649541 eV
  | Energy difference      :       0.14053508 eV

  Scalar-relativistic "band gap" of total set of bands:
  | Lowest unoccupied state:      -8.87083234 eV
  | Highest occupied state :      -8.88303445 eV
  | Energy difference      :       0.01220211 eV

  Spin-orbit-coupled "band gap" of total set of bands:
  | Lowest unoccupied state:      -8.91412160 eV
  | Highest occupied state :      -8.93837923 eV
  | Energy difference      :       0.02425762 eV


  Band Structure                                          :  max(cpu_time) wall_clock(cpu1)
  | Total Time                                            :         15.531           16.937
------------------------------------------------------------

------------------------------------------------------------------------------
  Final output of selected total energy values:

  The following output summarizes some interesting total energy values
  at the end of a run (AFTER all relaxation, molecular dynamics, etc.).

  | Total energy of the DFT / Hartree-Fock s.c.f. calculation      :         -34767.034296275 eV
  | Final zero-broadening corrected energy (caution - metals only) :         -34767.036503158 eV
  | Total energy after non-SC SOC correction (DO NOT USE)          :         -34767.084960118 eV
  | For reference only, the value of 1 Hartree used in FHI-aims is :             27.211384500 eV
  | For reference only, the overall average (free atom contribution
  | + realspace contribution) of the electrostatic potential after
  | s.c.f. convergence is                                          :            -27.634849470 eV

  Before relying on these values, please be sure to understand exactly which
  total energy value is referred to by a given number. Different objects may
  all carry the same name 'total energy'. Definitions:

  Total energy of the DFT / Hartree-Fock s.c.f. calculation:
  | Note that this energy does not include ANY quantities calculated after the
  | s.c.f. cycle, in particular not ANY RPA, MP2, etc. many-body perturbation terms.

  Final zero-broadening corrected energy:
  | For metallic systems only, a broadening of the occupation numbers at the Fermi
  | level can be extrapolated back to zero broadening by an electron-gas inspired
  | formula. For all systems that are not real metals, this value can be
  | meaningless and should be avoided.

------------------------------------------------------------------------------
  Methods described in the following list of references were used in this FHI-aims run.
  If you publish the results, please make sure to cite these reference if they apply.
  FHI-aims is an academic code, and for our developers (often, Ph.D. students
  and postdocs), scientific credit in the community is essential.
  Thank you for helping us!

  For any use of FHI-aims, please cite:

    Volker Blum, Ralf Gehrke, Felix Hanke, Paula Havu, Ville Havu,
    Xinguo Ren, Karsten Reuter, and Matthias Scheffler
    'Ab initio molecular simulations with numeric atom-centered orbitals'
    Computer Physics Communications 180, 2175-2196 (2009)
    http://dx.doi.org/10.1016/j.cpc.2009.06.022


  The provided symmetry information was generated with SPGlib:

    Atsushi Togo, Yusuke Seto, Dimitar Pashov
    SPGlib 1.7.3 obtained from http://spglib.sourceforge.net
    Copyright (C) 2008 Atsushi Togo


  For second-variational spin-orbit coupling used in your run, please cite:

    William P. Huhn and Volker Blum,
    'One-hundred-three compound band-structure benchmark of post-self-consistent'
    'spin-orbit coupling treatments in density functional theory'
    Phys. Rev. Materials 1, 033803 (2017).


  The ELSI infrastructure was used in your run to solve the Kohn-Sham electronic structure.
  Please check out http://elsi-interchange.org to learn more.
  If scalability is important for your project, please acknowledge ELSI by citing:

    V. W-z. Yu, F. Corsetti, A. Garcia, W. P. Huhn, M. Jacquelin, W. Jia,
    B. Lange, L. Lin, J. Lu, W. Mi, A. Seifitokaldani, A. Vazquez-Mayagoitia,
    C. Yang, H. Yang, and V. Blum
    'ELSI: A unified software interface for Kohn-Sham electronic structure solvers'
    Computer Physics Communications 222, 267-285 (2018).
    http://dx.doi.org/10.1016/j.cpc.2017.09.007


  For the real-space grid partitioning and parallelization used in this calculation, please cite:

    Ville Havu, Volker Blum, Paula Havu, and Matthias Scheffler,
    'Efficient O(N) integration for all-electron electronic structure calculation'
    'using numerically tabulated basis functions'
    Journal of Computational Physics 228, 8367-8379 (2009).
    http://dx.doi.org/10.1016/j.jcp.2009.08.008

  Of course, there are many other important community references, e.g., those cited in the
  above references. Our list is limited to references that describe implementations in the
  FHI-aims code. The reason is purely practical (length of this list) - please credit others as well.

------------------------------------------------------------
          Leaving FHI-aims.
          Date     :  20201110, Time     :  181735.005

          Computational steps:
          | Number of self-consistency cycles          :           13
          | Number of SCF (re)initializations          :            1

          Detailed time accounting                     :  max(cpu_time)    wall_clock(cpu1)
          | Total time                                 :      223.531 s         255.173 s
          | Preparation time                           :        0.578 s           0.649 s
          | Boundary condition initalization           :        0.172 s           0.194 s
          | Grid partitioning                          :        0.078 s           0.072 s
          | Preloading free-atom quantities on grid    :        0.359 s           0.398 s
          | Free-atom superposition energy             :        0.047 s           0.080 s
          | Total time for integrations                :       48.141 s          55.388 s
          | Total time for solution of K.-S. equations :        5.516 s           6.556 s
          | Total time for density update              :       84.062 s          96.984 s
          | Total time for mixing & preconditioning    :        3.656 s           4.099 s
          | Total time for Hartree multipole update    :        0.016 s           0.027 s
          | Total time for Hartree multipole sum       :        3.469 s           3.947 s
          | Total time for total energy evaluation     :        0.047 s           0.042 s
          | Total time for scaled ZORA corrections     :        0.000 s           0.000 s
          | Total time for perturbative SOC            :       12.750 s          14.053 s
          | Total time for band structures, DOS        :       54.328 s          59.730 s
          | Total time for Mulliken analysis           :       12.438 s          12.703 s

          Partial memory accounting:
          | Residual value for overall tracked memory usage across tasks:     7.143555 MB (should be 0.000000 MB)
          |
          | Largest tracked array allocation:
          |   Minimum:       14.341 MB (hamiltonian_shell on task 0)
          |   Maximum:       14.741 MB (hamiltonian_shell on task 1)
          |   Average:       14.541 MB
          |
          | Because the residual tracked memory usage was not zero, the peak value for overall
          | tracked memory usage was not output, as it is probably incorrect.  This is likely due
          | to a missing aims_deallocate statement in the source code, which should be otherwise
          | harmless.
          |
          Note:  These values currently only include a subset of arrays which are explicitly tracked.
          The "true" memory usage will be greater.

          Have a nice day.
------------------------------------------------------------
