------------------------------------------------------------
          Invoking FHI-aims ...

          When using FHI-aims, please cite the following reference:

          Volker Blum, Ralf Gehrke, Felix Hanke, Paula Havu,
          Ville Havu, Xinguo Ren, Karsten Reuter, and Matthias Scheffler,
          'Ab Initio Molecular Simulations with Numeric Atom-Centered Orbitals',
          Computer Physics Communications 180, 2175-2196 (2009)

          For any questions about FHI-aims, please visit the aimsclub website
          with its forums and wiki. Contributions to both the forums and the
          wiki are warmly encouraged - they are for you, and everyone is welcome there.

------------------------------------------------------------



  Date     :  20200420, Time     :  204038.778
  Time zero on CPU 1             :   0.114401000000000E+00  s.
  Internal wall clock time zero  :           356647238.778  s.

  FHI-aims created a unique identifier for this run for later identification
  aims_uuid : 120EACC5-9FE8-46AF-AA88-77AC7DEDB1E3

  Build configuration of the current instance of FHI-aims
  -------------------------------------------------------
  FHI-aims version      : 200112
  Commit number         : 23daeca3f
  CMake host system     : Linux-3.10.0-693.21.1.el7.x86_64
  CMake version         : 3.13.3
  Fortran compiler      : /sw/installed/impi/2018.4.274-iccifort-2019.1.144-GCC-8.2.0-2.31.1/bin64/mpiifort (Intel) version 19.0.0.20181018
  Fortran compiler flags: -O3 -ip -fp-model precise
  C compiler            : /sw/installed/impi/2018.4.274-iccifort-2019.1.144-GCC-8.2.0-2.31.1/bin64/mpiicc (Intel) version 19.0.0.20181018
  C compiler flags      : -O3 -ip -fp-model precise
  Architecture          :
  Using MPI
  Using Scalapack
  Using C files
  Using LibXC
  Using SPGlib
  Using i-PI
  Using RLSY
  Linking against: /sw/installed/imkl/2019.1.144-iimpi-2019a/mkl/lib/intel64/libmkl_intel_lp64.so
                   /sw/installed/imkl/2019.1.144-iimpi-2019a/mkl/lib/intel64/libmkl_sequential.so
                   /sw/installed/imkl/2019.1.144-iimpi-2019a/mkl/lib/intel64/libmkl_core.so
                   /sw/installed/imkl/2019.1.144-iimpi-2019a/mkl/lib/intel64/libmkl_blacs_intelmpi_lp64.so
                   /sw/installed/imkl/2019.1.144-iimpi-2019a/mkl/lib/intel64/libmkl_scalapack_lp64.so

  Using       24 parallel tasks.
  Task        0 on host taurusi6444.taurus.hrsk.tu-dresden.de reporting.
  Task        1 on host taurusi6444.taurus.hrsk.tu-dresden.de reporting.
  Task        2 on host taurusi6444.taurus.hrsk.tu-dresden.de reporting.
  Task        3 on host taurusi6444.taurus.hrsk.tu-dresden.de reporting.
  Task        4 on host taurusi6444.taurus.hrsk.tu-dresden.de reporting.
  Task        5 on host taurusi6444.taurus.hrsk.tu-dresden.de reporting.
  Task        6 on host taurusi6444.taurus.hrsk.tu-dresden.de reporting.
  Task        7 on host taurusi6444.taurus.hrsk.tu-dresden.de reporting.
  Task        8 on host taurusi6444.taurus.hrsk.tu-dresden.de reporting.
  Task        9 on host taurusi6444.taurus.hrsk.tu-dresden.de reporting.
  Task       10 on host taurusi6444.taurus.hrsk.tu-dresden.de reporting.
  Task       11 on host taurusi6444.taurus.hrsk.tu-dresden.de reporting.
  Task       12 on host taurusi6444.taurus.hrsk.tu-dresden.de reporting.
  Task       13 on host taurusi6444.taurus.hrsk.tu-dresden.de reporting.
  Task       14 on host taurusi6444.taurus.hrsk.tu-dresden.de reporting.
  Task       15 on host taurusi6444.taurus.hrsk.tu-dresden.de reporting.
  Task       16 on host taurusi6444.taurus.hrsk.tu-dresden.de reporting.
  Task       17 on host taurusi6444.taurus.hrsk.tu-dresden.de reporting.
  Task       18 on host taurusi6444.taurus.hrsk.tu-dresden.de reporting.
  Task       19 on host taurusi6444.taurus.hrsk.tu-dresden.de reporting.
  Task       20 on host taurusi6444.taurus.hrsk.tu-dresden.de reporting.
  Task       21 on host taurusi6444.taurus.hrsk.tu-dresden.de reporting.
  Task       22 on host taurusi6444.taurus.hrsk.tu-dresden.de reporting.
  Task       23 on host taurusi6444.taurus.hrsk.tu-dresden.de reporting.

  Performing system and environment tests:
  | Environment variable OMP_NUM_THREADS correctly set to 1.
  | Maximum stacksize for task 0: unlimited
  | Maximum stacksize for task 1: unlimited
  | Maximum stacksize for task 2: unlimited
  | Maximum stacksize for task 3: unlimited
  | Maximum stacksize for task 4: unlimited
  | Maximum stacksize for task 5: unlimited
  | Maximum stacksize for task 6: unlimited
  | Maximum stacksize for task 7: unlimited
  | Maximum stacksize for task 8: unlimited
  | Maximum stacksize for task 9: unlimited
  | Maximum stacksize for task 10: unlimited
  | Maximum stacksize for task 11: unlimited
  | Maximum stacksize for task 12: unlimited
  | Maximum stacksize for task 13: unlimited
  | Maximum stacksize for task 14: unlimited
  | Maximum stacksize for task 15: unlimited
  | Maximum stacksize for task 16: unlimited
  | Maximum stacksize for task 17: unlimited
  | Maximum stacksize for task 18: unlimited
  | Maximum stacksize for task 19: unlimited
  | Maximum stacksize for task 20: unlimited
  | Maximum stacksize for task 21: unlimited
  | Maximum stacksize for task 22: unlimited
  | Maximum stacksize for task 23: unlimited
  | Current stacksize for task 0: unlimited
  | Current stacksize for task 1: unlimited
  | Current stacksize for task 2: unlimited
  | Current stacksize for task 3: unlimited
  | Current stacksize for task 4: unlimited
  | Current stacksize for task 5: unlimited
  | Current stacksize for task 6: unlimited
  | Current stacksize for task 7: unlimited
  | Current stacksize for task 8: unlimited
  | Current stacksize for task 9: unlimited
  | Current stacksize for task 10: unlimited
  | Current stacksize for task 11: unlimited
  | Current stacksize for task 12: unlimited
  | Current stacksize for task 13: unlimited
  | Current stacksize for task 14: unlimited
  | Current stacksize for task 15: unlimited
  | Current stacksize for task 16: unlimited
  | Current stacksize for task 17: unlimited
  | Current stacksize for task 18: unlimited
  | Current stacksize for task 19: unlimited
  | Current stacksize for task 20: unlimited
  | Current stacksize for task 21: unlimited
  | Current stacksize for task 22: unlimited
  | Current stacksize for task 23: unlimited
  | Checking for scalapack...
  | Testing pdtran()...
  | All pdtran() tests passed.

  Obtaining array dimensions for all initial allocations:
  
  -----------------------------------------------------------------------
  Parsing control.in (first pass over file, find array dimensions only).
  The contents of control.in will be repeated verbatim below
  unless switched off by setting 'verbatim_writeout .false.' .
  in the first line of control.in .
  -----------------------------------------------------------------------
  
  #===============================================================================
  # FHI-aims file: ./control.in
  # Created using the Atomic Simulation Environment (ASE)
  # Thu Apr  2 11:27:09 2020
  #===============================================================================
  xc                                 pbe
  # include_spin_orbit
  # vdw_correction_hirshfeld
  many_body_dispersion
  spin                               none
  k_grid 	 	 10 10 8
  relativistic                       atomic_zora scalar
  energy_tolerance 1e-2
  harmonic_length_scale  0.015
  ### SCF settings
  adjust_scf 	 always 	 3
  # frozen_core_scf 	 .true.
  # charge_mix_param  0.05
  # occupation_type 	 gaussian 	 0.01
  # sc_accuracy_eev   1E-3 	 	 # sum of eigenvalues convergence
  # sc_accuracy_etot  1E-6 	 	 # total energy convergence
  # sc_accuracy_rho   1E-3 	 	 # electron density convergence
  # elsi_restart 	 read_and_write 	 1000
  ### geometry optimisation section
  relax_geometry 	 bfgs 	 1E-2
  relax_unit_cell 	 full
  #===============================================================================
  
  ################################################################################
  #
  #  FHI-aims code project
  # Volker Blum, Fritz Haber Institute Berlin, 2009
  #
  #  Suggested "tight" defaults for Pd atom (to be pasted into control.in file)
  #
  ################################################################################
    species        Pd
  #     global species definitions
      nucleus             46
      mass                106.42
  #
      l_hartree           6
  #
      cut_pot             4.0  2.0  1.0
      basis_dep_cutoff    1e-4
  #
      radial_base         62 7.0
      radial_multiplier   2
      angular_grids specified
        division   0.3627   50
        division   0.7349  110
        division   1.0624  194
        division   1.2496  302
        division   1.6740  434
  #      division   2.0126  590
  #      division   2.0830  770
  #      division   2.7936 1202
  #       outer_grid  974
        outer_grid  434
  ################################################################################
  #
  #  Definition of "minimal" basis
  #
  ################################################################################
  #     valence basis states
      valence      5  s   1.
      valence      4  p   6.
      valence      4  d   9.
  #     ion occupancy
      ion_occ     5  s   0.
      ion_occ     4  p   6.
      ion_occ     4  d   8.
  ################################################################################
  #
  #  Suggested additional basis functions. For production calculations,
  #  uncomment them one after another (the most important basis functions are
  #  listed first).
  #
  #  Constructed for dimers: 2.0 A, 2.275 A, 2.75 A, 3.75 A
  #
  ################################################################################
  #  "First tier" - max. impr. -120.76  meV, min. impr. -5.71 meV
       ionic 5 p auto
       hydro 4 f 8
       hydro 5 g 10
       hydro 3 s 2.6
       hydro 3 d 2.5
  #  "Second tier" - max. impr. -5.00  meV, min. impr. -0.62 meV
  #     hydro 5 f 17.2
  #     hydro 6 h 14
  #     hydro 4 d 4
  #     hydro 5 f 7.6
  #     hydro 3 p 3.3
  #     hydro 4 s 9.4
  #  "Third tier" - max. impr. -0.54  meV, min. impr. -0.14 meV
  #     hydro 4 f 20
  #     hydro 5 g 12.8
  #     hydro 5 d 9.8
  #     hydro 6 h 15.2
  #     hydro 5 s 10
  #     hydro 6 p 9.8
  #  "Fourth tier" - max. impr. -0.15  meV, min. impr. -0.05 meV
  #     hydro 5 f 9.2
  #     hydro 2 s 5.6
  #     hydro 5 f 43.2
  #     hydro 5 d 13.2
  #     hydro 5 g 14
  #     hydro 4 p 4.7
  ################################################################################
  #
  #  FHI-aims code project
  # Volker Blum, Fritz Haber Institute Berlin, 2009
  #
  #  Suggested "tight" defaults for Se atom (to be pasted into control.in file)
  #
  ################################################################################
    species        Se
  #     global species definitions
      nucleus             34
      mass                78.96
  #
      l_hartree           6
  #
      cut_pot             4.0          2.0  1.0
      basis_dep_cutoff    1e-4
  #
      radial_base         55 7.0
      radial_multiplier   2
      angular_grids       specified
        division   0.0830  110
        division   0.1357  194
        division   0.7377  302
        division   0.8610  434
  #      division   0.9640  590
  #      division   1.0773  770
  #      division   2.5539  974
  #      outer_grid  974
        outer_grid  434
  ################################################################################
  #
  #  Definition of "minimal" basis
  #
  ################################################################################
  #     valence basis states
      valence      4  s   2.
      valence      4  p   4.
      valence      3  d  10.
  #     ion occupancy
      ion_occ      4  s   1.
      ion_occ      4  p   3.
      ion_occ      3  d  10.
  ################################################################################
  #
  #  Suggested additional basis functions. For production calculations,
  #  uncomment them one after another (the most important basis functions are
  #  listed first).
  #
  #  Constructed for dimers: 1.85 A, 2.15 A, 2.50 A, 3.00 A, 4.00 A
  #
  ################################################################################
  #  "First tier" - improvements: -336.21 meV to -36.85 meV
       hydro 3 d 4.3
       hydro 2 p 1.6
       hydro 4 f 7.2
       ionic 4 s auto
  #  "Second tier" - improvements: -14.39 meV to -1.49 meV
  #     hydro 5 g 10.4
  #     hydro 4 p 4.5
  #     hydro 4 d 6.2
  #     hydro 4 f 11.2
  #     hydro 1 s 0.65
  #     hydro 6 h 15.2
  #  "Third tier" - improvements: -0.46 meV and below
  #     hydro 5 g 14.4
  #     ionic 4 d auto
  #     hydro 4 f 22.4
  #     hydro 5 f 7.4
  #     hydro 5 p 8
  #     hydro 5 s 9.4
  #  "Fourth tier" - improvements: -0.12 meV and below
  #     hydro 5 d 11.6
  #     hydro 6 h 18
  #     hydro 4 p 4
  #     hydro 5 f 16
  #     hydro 4 s 3.9
  #
  #
  
  -----------------------------------------------------------------------
  Completed first pass over input file control.in .
  -----------------------------------------------------------------------
  
  
  -----------------------------------------------------------------------
  Parsing geometry.in (first pass over file, find array dimensions only).
  The contents of geometry.in will be repeated verbatim below
  unless switched off by setting 'verbatim_writeout .false.' .
  in the first line of geometry.in .
  -----------------------------------------------------------------------
  
  #
  # This is the geometry file that corresponds to the current relaxation step.
  # If you do not want this file to be written, set the "write_restart_geometry" flag to .false.
  #  aims_uuid : 09831C20-B35C-4554-AF6D-F7E6AD3AA86C
  #
  lattice_vector      5.85158028      0.00000000      0.00000000
  lattice_vector      0.00000000      5.95772156      0.00000000
  lattice_vector      0.00000000      0.00000000      7.44723354
  atom_frac       0.50226023      0.00171272      0.00159910 Pd
  atom_frac       0.00170654      0.00171741      0.50242529 Pd
  atom_frac       0.00176806      0.50227638      0.00162421 Pd
  atom_frac       0.50232389      0.50228258      0.50239896 Pd
  atom_frac       0.61410877      0.11980719      0.40423381 Se
  atom_frac       0.89104688      0.88480131      0.90469338 Se
  atom_frac       0.11354429      0.38424739      0.60045225 Se
  atom_frac       0.39045334      0.62035990      0.09978728 Se
  atom_frac       0.39048467      0.88481341      0.60045512 Se
  atom_frac       0.11356979      0.11981006      0.09979802 Se
  atom_frac       0.89103605      0.62035087      0.40423602 Se
  atom_frac       0.61410711      0.38423043      0.90470619 Se
  #
  # What follows is the current estimated Hessian matrix constructed by the BFGS algorithm.
  # This is NOT the true Hessian matrix of the system.
  # If you do not want this information here, switch it off using the "hessian_to_restart_geometry" keyword.
  #
  trust_radius             0.0122101567
  hessian_block                1       1           6.025204          -0.210091          -2.317360          -0.210091           6.92603
  hessian_block                1       2          -0.301858           1.131850           0.356755           0.105571           1.07668
  hessian_block                1       3          -0.408993           1.568706           0.471162          -0.020756          -0.39525
  hessian_block                1       4           0.493195           0.327533          -0.031154           0.211149          -0.41049
  hessian_block                1       5           0.120209          -1.006029          -0.454298          -0.669302           0.77558
  hessian_block                1       6          -1.375304          -0.765695           0.351165           0.792541          -1.34823
  hessian_block                1       7          -0.564702           0.709684           0.454021           0.140170           0.29236
  hessian_block                1       8          -0.074088          -1.059276           0.134728          -0.255076          -2.27782
  hessian_block                1       9          -0.132829           0.046881           0.194887          -0.111603          -1.00739
  hessian_block                1      10          -2.678096           1.736205           1.355827          -0.263844           0.73653
  hessian_block                1      11           0.388391          -1.211949          -0.527175           0.324523          -0.71987
  hessian_block                1      12           0.074781          -1.267819           0.011442          -0.043283          -2.00109
  hessian_block                2       2           6.875652           1.037080           2.695692           1.037080           7.62468
  hessian_block                2       3           1.985956           1.741043           0.933658          -0.693974          -0.45837
  hessian_block                2       4           0.320566           0.608067           0.149554          -0.711642           0.21333
  hessian_block                2       5          -2.697123          -0.327381          -1.137818           1.197098           0.39055
  hessian_block                2       6          -1.422748          -1.418910          -0.740741          -1.158662          -1.96958
  hessian_block                2       7           0.551841          -0.058930          -0.010118          -0.328342          -1.89020
  hessian_block                2       8          -0.757063          -0.910976          -0.482945          -0.149512          -0.52614
  hessian_block                2       9          -2.031082           0.339656          -0.983502          -0.067721          -1.66784
  hessian_block                2      10           1.477345           1.129348           0.788045           1.201320           1.74256
  hessian_block                2      11          -1.459817          -1.591436          -0.714473          -1.125165          -3.02924
  hessian_block                2      12          -0.975762          -0.653136          -0.374081          -0.332331           0.14059
  hessian_block                3       3           8.062218          -0.771941           3.337244          -0.771941           6.30632
  hessian_block                3       4           0.431816          -0.274317           0.021553          -0.641667           0.40163
  hessian_block                3       5          -1.319585           0.262625          -0.776684           0.965822           0.06558
  hessian_block                3       6          -2.225669           0.842237          -1.358077          -1.444897          -1.60659
  hessian_block                3       7           0.908947          -0.147027           0.695711           0.138485          -0.09328
  hessian_block                3       8          -2.825796          -0.148074          -1.258898          -1.006603          -0.39939
  hessian_block                3       9          -0.307118           0.375173           0.129556          -1.086337           0.04043
  hessian_block                3      10           2.001313           0.223341           1.064439           2.545704          -2.20022
  hessian_block                3      11          -1.704049           0.482998          -0.935895          -1.116999           0.04872
  hessian_block                3      12          -3.033126          -0.130287          -1.386465          -0.891316          -0.06255
  hessian_block                4       4           5.934708           0.038346          -2.001840           0.038346           6.79636
  hessian_block                4       5          -0.512346           0.940426           0.278709           0.260320          -2.05214
  hessian_block                4       6          -0.195815           0.211117          -0.106697          -0.311794          -0.45040
  hessian_block                4       7          -1.889865          -0.938184           0.748264          -0.236134          -0.57271
  hessian_block                4       8          -0.294154           0.029957          -0.140747           0.096454          -0.34353
  hessian_block                4       9          -0.301006           0.610954           0.131898           0.030383          -2.28424
  hessian_block                4      10          -0.296182          -0.322453           0.026035          -0.153266           0.50085
  hessian_block                4      11          -1.985563           0.071509           0.817726          -0.700441          -0.46135
  hessian_block                4      12          -0.139445           0.500486          -0.016639           0.314848           0.30971
  hessian_block                5       5           5.730279          -1.075097          -1.238907          -1.075097           6.57160
  hessian_block                5       6           1.014347          -0.977261          -0.156389           0.824445          -1.12570
  hessian_block                5       7          -0.883801           1.425974           0.010435          -0.913468           0.37878
  hessian_block                5       8           0.384735          -0.434513           0.434181           0.582149          -0.57173
  hessian_block                5       9          -1.340284          -0.314811           1.727503           0.164839          -2.37672
  hessian_block                5      10          -0.870598           1.337912           0.254044          -0.525190           1.35283
  hessian_block                5      11           1.274777          -1.497139           0.078825           1.197711          -1.25250
  hessian_block                5      12           0.665299          -0.219002          -0.447065          -0.125031          -0.50912
  hessian_block                6       6           6.610027           1.781178           4.070745           1.781178           7.40534
  hessian_block                6       7          -0.476504          -0.703075          -0.994665           0.333714           0.37566
  hessian_block                6       8           0.661006           1.048106           1.199933           0.759534           0.79333
  hessian_block                6       9           0.042931           0.107098          -0.008338           1.100957           1.78255
  hessian_block                6      10          -3.115008          -2.822705          -5.219285          -2.797355          -3.74982
  hessian_block                6      11           1.032208           1.231433           1.420425           0.740402           1.39152
  hessian_block                6      12           1.016438           0.656331           1.101318           0.190079           0.14894
  hessian_block                7       7           5.758647           0.777899           0.801468           0.777899           6.03206
  hessian_block                7       8          -0.428752          -0.010852           0.029628          -0.249989          -0.09873
  hessian_block                7       9           0.423183           0.535878          -0.190448          -1.022530          -0.46846
  hessian_block                7      10           0.813055          -0.533200          -0.614911           0.867765          -0.72693
  hessian_block                7      11          -2.401156           0.155347          -1.296470          -0.175814          -1.82065
  hessian_block                7      12          -0.244982          -0.059498           0.552695          -0.485772           0.23914
  hessian_block                8       8           5.030415           0.179059          -1.285770           0.179059           5.71132
  hessian_block                8       9           0.285112          -0.482030          -0.192711           0.685459           0.62009
  hessian_block                8      10          -0.669533          -0.834567           0.891510          -1.179629          -0.87971
  hessian_block                8      11           0.810745           0.196569          -0.631547           0.646448           0.91623
  hessian_block                8      12          -0.556717           1.164011           1.434996           1.154290          -1.29688
  hessian_block                9       9           5.034206          -0.569508          -0.770484          -0.569508           7.04716
  hessian_block                9      10           0.003485          -0.724118          -0.342895          -0.225713          -1.29192
  hessian_block                9      11          -0.217810           1.460130           0.176506          -0.589901           1.39050
  hessian_block                9      12           0.107122           0.140050           0.704842           0.166324          -0.13714
  hessian_block               10      10           7.123025           2.327937           3.402010           2.327937           8.38170
  hessian_block               10      11          -1.125375          -1.156730          -0.648718          -0.881921          -1.59224
  hessian_block               10      12          -1.097520          -0.640996          -0.754059          -0.635778          -0.62661
  hessian_block               11      11           6.365426           1.391994           0.787048           1.391994           6.81994
  hessian_block               11      12           0.588134           0.289165          -0.436620           0.467275          -0.04402
  hessian_block               12      12           5.161690           0.220693          -0.390363           0.220693           5.48607
  hessian_block_lv             1       1          27.115056          -0.626171           5.791420          -0.626171          26.63667
  hessian_block_lv_atom        1       1           0.135920           0.272444          -0.116916          -0.502790          -0.64551
  hessian_block_lv_atom        1       2          -0.920001          -1.348857           0.061698           0.339476          -0.00012
  hessian_block_lv_atom        1       3          -0.856517          -1.318388           0.264428           0.586656           0.89060
  hessian_block_lv_atom        1       4          -0.192577          -0.242466          -0.058373           1.383907           1.45325
  hessian_block_lv_atom        1       5           0.839699           1.036606           0.236371           0.090112          -0.10618
  hessian_block_lv_atom        1       6          -0.232501          -0.383130          -0.827237          -1.055812          -0.98512
  hessian_block_lv_atom        1       7          -0.947553          -1.285974           0.221297          -1.569502          -1.81852
  hessian_block_lv_atom        1       8           0.068521           0.477157          -0.438049          -0.281176          -0.28486
  hessian_block_lv_atom        1       9           0.073577           0.227484          -0.191420          -0.803515          -0.62644
  hessian_block_lv_atom        1      10           0.187087           0.384072           0.919724           1.124686           0.80776
  hessian_block_lv_atom        1      11           1.163604           1.636166          -0.262897           0.550434           1.08915
  hessian_block_lv_atom        1      12           0.680743           0.544885           0.191374           0.137525           0.22601
  symmetry_n_params 39 3 36
  symmetry_params a1 b2 c3 x0 x1 x2 x3 x4 x5 x6 x7 x8 x9 x10 x11 x12 x13 x14 x15 x16 x17 x18 x19 x20 x21 x22 x23 x24 x25 x26 x27 x28 x
  symmetry_lv a1 , 0 , 0
  symmetry_lv 0 , b2 , 0
  symmetry_lv 0 , 0 , c3
  symmetry_frac x0 , x1 , x2
  symmetry_frac x3 , x4 , x5
  symmetry_frac x6 , x7 , x8
  symmetry_frac x9 , x10 , x11
  symmetry_frac x12 , x13 , x14
  symmetry_frac x15 , x16 , x17
  symmetry_frac x18 , x19 , x20
  symmetry_frac x21 , x22 , x23
  symmetry_frac x24 , x25 , x26
  symmetry_frac x27 , x28 , x29
  symmetry_frac x30 , x31 , x32
  symmetry_frac x33 , x34 , x35
  
  -----------------------------------------------------------------------
  Completed first pass over input file geometry.in .
  -----------------------------------------------------------------------
  

  Basic array size parameters:
  | Number of species                 :        2
  | Number of atoms                   :       12
  | Number of lattice vectors         :        3
  | Max. basis fn. angular momentum   :        4
  | Max. atomic/ionic basis occupied n:        5
  | Max. number of basis fn. types    :        3
  | Max. radial fns per species/type  :       10
  | Max. logarithmic grid size        :     1444
  | Max. radial integration grid size :      125
  | Max. angular integration grid size:      434
  | Max. angular grid division number :        8
  | Radial grid for Hartree potential :     1444
  | Number of spin channels           :        1

------------------------------------------------------------
          Reading file control.in.
------------------------------------------------------------
  XC: Using PBE gradient-corrected functionals.
  Using libMBD for calculating MBD and TS energies
  Spin treatment: No spin polarisation.
  Found k-point grid:        10        10         8
  Scalar relativistic treatment of kinetic energy: on-site free-atom approximation to ZORA.
  Max energy increase before discarding BFGS move:   0.100000E-01 eV
  Assuming qualitatively harmonic for steps shorter than   0.150000E-01 A.
  S.C.F. convergence parameters will be adjusted in iteration number     3 of each new s.c.f. cycle.
  Geometry relaxation: Modified BFGS - TRM (trust radius method) for lattice optimization.
  Convergence accuracy for geometry relaxation: Maximum force <   0.100000E-01 eV/A.
 
  Reading configuration options for species Pd                  .
  | Found nuclear charge :  46.0000
  | Found atomic mass :    106.420000000000      amu
  | Found l_max for Hartree potential  :   6
  | Found cutoff potl. onset [A], width [A], scale factor :    4.00000    2.00000    1.00000
  | Threshold for basis-dependent cutoff potential is   0.100000E-03
  | Found data for basic radial integration grid :    62 points, outermost radius =    7.000 A
  | Found multiplier for basic radial grid :   2
  | Found angular grid specification: user-specified.
  | Specified grid contains     6 separate shells.
  | Check grid settings after all constraints further below.
  | Found free-atom valence shell :  5 s   1.000
  | Found free-atom valence shell :  4 p   6.000
  | Found free-atom valence shell :  4 d   9.000
  | Found free-ion valence shell :  5 s   0.000
  | Found free-ion valence shell :  4 p   6.000
  | Found free-ion valence shell :  4 d   8.000
  | Found ionic basis function :  5 p , default cutoff radius.
  | Found hydrogenic basis function :  4 f   8.000
  | Found hydrogenic basis function :  5 g  10.000
  | Found hydrogenic basis function :  3 s   2.600
  | Found hydrogenic basis function :  3 d   2.500
  Species Pd                  : Missing cutoff potential type.
  Defaulting to exp(1/x)/(1-x)^2 type cutoff potential.
  Species Pd: No 'logarithmic' tag. Using default grid for free atom:
  | Default logarithmic grid data [bohr] : 0.1000E-03 0.1000E+03 0.1012E+01
  | Will include ionic basis functions of  2.0-fold positive Pd                   ion.
  Species Pd: On-site basis accuracy parameter (for Gram-Schmidt orthonormalisation) not specified.
  Using default value basis_acc =  0.1000000E-03.
  Species Pd                  : Using default innermost maximum threshold i_radial=  2 for radial functions.
  Species Pd                  : Default cutoff onset for free atom density etc. : 0.40000000E+01 AA.
  Species Pd                  : Basic radial grid will be enhanced according to radial_multiplier =   2, to contain   125 grid points.
 
  Reading configuration options for species Se                  .
  | Found nuclear charge :  34.0000
  | Found atomic mass :    78.9600000000000      amu
  | Found l_max for Hartree potential  :   6
  | Found cutoff potl. onset [A], width [A], scale factor :    4.00000    2.00000    1.00000
  | Threshold for basis-dependent cutoff potential is   0.100000E-03
  | Found data for basic radial integration grid :    55 points, outermost radius =    7.000 A
  | Found multiplier for basic radial grid :   2
  | Found angular grid specification: user-specified.
  | Specified grid contains     5 separate shells.
  | Check grid settings after all constraints further below.
  | Found free-atom valence shell :  4 s   2.000
  | Found free-atom valence shell :  4 p   4.000
  | Found free-atom valence shell :  3 d  10.000
  | Found free-ion valence shell :  4 s   1.000
  | Found free-ion valence shell :  4 p   3.000
  | Found free-ion valence shell :  3 d  10.000
  | Found hydrogenic basis function :  3 d   4.300
  | Found hydrogenic basis function :  2 p   1.600
  | Found hydrogenic basis function :  4 f   7.200
  | Found ionic basis function :  4 s , default cutoff radius.
  Species Se                  : Missing cutoff potential type.
  Defaulting to exp(1/x)/(1-x)^2 type cutoff potential.
  Species Se: No 'logarithmic' tag. Using default grid for free atom:
  | Default logarithmic grid data [bohr] : 0.1000E-03 0.1000E+03 0.1012E+01
  | Will include ionic basis functions of  2.0-fold positive Se                   ion.
  Species Se: On-site basis accuracy parameter (for Gram-Schmidt orthonormalisation) not specified.
  Using default value basis_acc =  0.1000000E-03.
  Species Se                  : Using default innermost maximum threshold i_radial=  2 for radial functions.
  Species Se                  : Default cutoff onset for free atom density etc. : 0.40000000E+01 AA.
  Species Se                  : Basic radial grid will be enhanced according to radial_multiplier =   2, to contain   111 grid points.
 
  Finished reading input file 'control.in'. Consistency checks are next.
 
  MPI_IN_PLACE appears to work with this MPI implementation.
  | Keeping use_mpi_in_place .true. (see manual).
  Target number of points in a grid batch is not set. Defaulting to  100
  Method for grid partitioning is not set. Defaulting to parallel hash+maxmin partitioning.
  Batch size limit is not set. Defaulting to    200
  By default, will store active basis functions for each batch.
  If in need of memory, prune_basis_once .false. can be used to disable this option.
  communication_type for Hartree potential was not specified.
  Defaulting to calc_hartree .
  Defaulting to Pulay charge density mixer.
  Pulay mixer: Number of relevant iterations not set.
  Defaulting to    8 iterations.
  Pulay mixer: Number of initial linear mixing iterations not set.
  Defaulting to    0 iterations.
  Work space size for distributed Hartree potential not set.
  Defaulting to   0.200000E+03 MB.
  Mixing parameter for charge density mixing has not been set.
  Using default: charge_mix_param =     0.0500.
  The mixing parameter will be adjusted in iteration number     3 of each s.c.f. cycle (i.e., each geometry step).
  Algorithm-dependent basis array size parameters:
  | n_max_pulay                         :        8
  Maximum number of self-consistency iterations not provided.
  Presetting  1000 iterations.
  Presetting      1001 iterations before the initial mixing cycle
  is restarted anyway using the sc_init_iter criterion / keyword.
  Presetting a factor      1.000 between actual scf density residual
  and density convergence criterion sc_accuracy_rho below which sc_init_iter
  takes no effect.
 * No s.c.f. convergence criteria (sc_accuracy_*) were provided in control.in.
 * The run will proceed with a reasonable default guess, but please check whether.
 * the s.c.f. cycles seem to take too much or too little time.
  No maximum number of relaxation steps, defaulting to     1000
  Using explicit Hessian from geometry.in.
  Maximum energy tolerance by which TRM/BFGS trajectory may increase over multiple steps:   0.300000E-02
  No trust radius initializer. Defaulting to   0.200000E+00 A.
  Unit cell relaxation: Unit cell will be relaxed fully.
  Unit cell relaxation: Analytical stress will be used.
  Analytical stress will be computed.
  Analytical stress calculation: Only the upper triangle is calculated.
                                 Final output is symmetrized.
  Analytical stress calculation: scf convergence accuracy of stress not set.
                                 Analytical stress self-consistency will not be checked explicitly.
                                 Be sure to set other criteria like sc_accuracy_rho tight enough.
 * Notice: The s.c.f. convergence criterion sc_accuracy_rho was not provided.
 * We used to stop in this case, and ask the user to provide reasonable
 * scf convergence criteria. However, this led some users to employ criteria
 * that led to extremely long run times, e.g., for simple relaxation.
 * We now preset a default value for sc_accuracy_rho if it is not set.
 * You may still wish to check if this setting is too tight or too loose for your needs.
 * Based on n_atoms, FHI-aims chose sc_accuracy_rho =  0.141421E-05 .
  Force calculation: scf convergence accuracy of forces not set.
  Defaulting to 'sc_accuracy_forces not_checked'.
  Handling of forces: Unphysical translation and rotation will be removed from forces.
  No accuracy limit for integral partition fn. given. Defaulting to  0.1000E-14.
  No threshold value for u(r) in integrations given. Defaulting to  0.1000E-05.
  No occupation type (smearing scheme) given. Defaulting to Gaussian broadening, width =  0.1000E-01 eV.
  The width will be adjusted in iteration number     3 of each s.c.f. cycle (i.e., each geometry step).
  S.C.F. convergence parameters will be adjusted in iteration number     3 of the first full s.c.f. cycle only.
  No accuracy for occupation numbers given. Defaulting to  0.1000E-12.
  No threshold value for occupation numbers given. Defaulting to  0.0000E+00.
  No accuracy for fermi level given. Defaulting to  0.1000E-19.
  Maximum # of iterations to find E_F not set. Defaulting to  200.
  Preferred method for the eigenvalue solver ('KS_method') not specified in 'control.in'.
  Defaulting to serial version, LAPACK (via ELSI), since more k-points than CPUs available.
  Will not use alltoall communication since running on < 1024 CPUs.
  Threshold for basis singularities not set.
  Default threshold for basis singularities:  0.1000E-04
  partition_type (choice of integration weights) for integrals was not specified.
  | Using a version of the partition function of Stratmann and coworkers ('stratmann_sparse').
  | At each grid point, the set of atoms used to build the partition table is smoothly restricted to
  | only those atoms whose free-atom density would be non-zero at that grid point.
  Partitioning for Hartree potential was not defined. Using partition_type for integrals.
  | Adjusted default value of keyword multip_moments_threshold to:       0.10000000E-11
  | This value may affect high angular momentum components of the Hartree potential in periodic systems.
  Angular momentum expansion for Kerker preconditioner not set explicitly.
  | Using default value of   0
  No explicit requirement for turning off preconditioner.
  | By default, it will be turned off when the charge convergence reaches
  | sc_accuracy_rho  =   0.141421E-05
  No special mixing parameter while Kerker preconditioner is on.
  Using default: charge_mix_param =     0.0500.
  No q(lm)/r^(l+1) cutoff set for long-range Hartree potential.
  | Using default value of  0.100000E-09 .
  | Verify using the multipole_threshold keyword.
  Defaulting to new monopole extrapolation.
  Density update method: automatic selection selected.
  Using density matrix based charge density update.
  Using density matrix based charge density update.
  Using packed matrix style: index .
  Geometry relaxation: A file "geometry.in.next_step" is written out by default after each step.
  | This file contains the geometry of the current relaxation step as well as
  | the current Hessian matrix needed to restart the relaxation algorithm.
  | If you do not want part or all of this information, use the keywords
  | "write_restart_geometry" or "hessian_to_restart_geometry" to switch the output off.
  Defaulting to use time-reversal symmetry for k-point grid.
  Charge integration errors on the 3D integration grid will be compensated
  by explicit normalization and distribution of residual charges.
  Use the "compensate_multipole_errors" flag to change this behaviour.
------------------------------------------------------------


------------------------------------------------------------
          Reading geometry description geometry.in.
------------------------------------------------------------
  Input structure read successfully.
  The structure contains       12 atoms,  and a total of        456.000 electrons.

  Input geometry:
  | Unit cell:
  |        5.85158028        0.00000000        0.00000000
  |        0.00000000        5.95772156        0.00000000
  |        0.00000000        0.00000000        7.44723354
  | Atomic structure:
  |       Atom                x [A]            y [A]            z [A]
  |    1: Species Pd            2.93901606        0.01020391        0.01190887
  |    2: Species Pd            0.00998596        0.01023185        3.74167847
  |    3: Species Pd            0.01034595        2.99242282        0.01209587
  |    4: Species Pd            2.93938857        2.99245976        3.74148239
  |    5: Species Se            3.59350677        0.71377788        3.01042359
  |    6: Species Se            5.21403235        5.27139984        6.73746288
  |    7: Species Se            0.66441353        2.28923896        4.47170814
  |    8: Species Se            2.28476906        3.69593155        0.74313918
  |    9: Species Se            2.28495239        5.27147193        4.47172951
  |   10: Species Se            0.66456274        0.71379498        0.74321916
  |   11: Species Se            5.21396898        3.69587775        3.01044005
  |   12: Species Se            3.59349705        2.28913792        6.73755828

  Lattice parameters for 3D lattice (in Angstroms) :     5.851580    5.957722    7.447234
  Angle(s) between unit vectors (in degrees)       :    90.000000   90.000000   90.000000

  | The smallest distance between any two atoms is         2.40145755 AA.
  | The first atom of this pair is atom number                      6 .
  | The second atom of this pair is atom number                    10 .
  | Wigner-Seitz cell of the first atom image           0     0     0 .
  | (The Wigner-Seitz cell of the second atom is 0 0 0  by definition.)

  Symmetry information by spglib:
  | Precision set to  0.1E-04
  | Number of Operations  : 1
  | Space group           : 1
  | International         : P1  V
  | Schoenflies           : C1^1

  Quantities derived from the lattice vectors:
  | Reciprocal lattice vector 1:  1.073759  0.000000  0.000000
  | Reciprocal lattice vector 2:  0.000000  1.054629  0.000000
  | Reciprocal lattice vector 3:  0.000000  0.000000  0.843694
  | Unit cell volume                               :   0.259626E+03  A^3

  Range separation radius for Ewald summation (hartree_convergence_parameter):      4.00074077 bohr.

  Fractional coordinates:
                         L1                L2                L3
       atom_frac         0.50226023        0.00171272        0.00159910  Pd
       atom_frac         0.00170654        0.00171741        0.50242529  Pd
       atom_frac         0.00176806        0.50227638        0.00162421  Pd
       atom_frac         0.50232389        0.50228258        0.50239896  Pd
       atom_frac         0.61410877        0.11980719        0.40423381  Se
       atom_frac         0.89104688        0.88480131        0.90469338  Se
       atom_frac         0.11354429        0.38424739        0.60045225  Se
       atom_frac         0.39045334        0.62035990        0.09978728  Se
       atom_frac         0.39048467        0.88481341        0.60045512  Se
       atom_frac         0.11356979        0.11981006        0.09979802  Se
       atom_frac         0.89103605        0.62035087        0.40423602  Se
       atom_frac         0.61410711        0.38423043        0.90470619  Se

  Number of empty states per atom not set in control.in - providing a guess from actual geometry.
  | Total number of empty states used during s.c.f. cycle:       66
  If you use a very high smearing, use empty_states (per atom!) in control.in to increase this value.

  Structure-dependent array size parameters: 
  | Maximum number of distinct radial functions  :       27
  | Maximum number of basis functions            :      468
  | Number of Kohn-Sham states (occupied + empty):      294
------------------------------------------------------------

------------------------------------------------------------
          Preparing all fixed parts of the calculation.
------------------------------------------------------------
  Determining machine precision:
    2.225073858507201E-308
  Setting up grids for atomic and cluster calculations.

  Creating wave function, potential, and density for free atoms.

  Species: Pd

  List of occupied orbitals and eigenvalues:
    n    l              occ      energy [Ha]    energy [eV]
    1    0           2.0000      -913.269104    -24851.3168
    2    0           2.0000      -130.434372     -3549.2998
    3    0           2.0000       -23.521804      -640.0609
    4    0           2.0000        -3.256918       -88.6253
    5    0           1.0000        -0.157260        -4.2793
    2    1           6.0000      -116.910756     -3181.3035
    3    1           6.0000       -19.103344      -519.8284
    4    1           6.0000        -1.998052       -54.3697
    3    2          10.0000       -12.098182      -329.2083
    4    2           9.0000        -0.243389        -6.6230


  Species: Se

  List of occupied orbitals and eigenvalues:
    n    l              occ      energy [Ha]    energy [eV]
    1    0           2.0000      -466.337810    -12689.6975
    2    0           2.0000       -59.202598     -1610.9847
    3    0           2.0000        -7.847116      -213.5309
    4    0           2.0000        -0.634372       -17.2621
    2    1           6.0000       -52.061107     -1416.6548
    3    1           6.0000        -5.620941      -152.9536
    4    1           4.0000        -0.238469        -6.4891
    3    2          10.0000        -1.951949       -53.1152

  Creating fixed part of basis set: Ionic, confined, hydrogenic.
 
  Pd                   ion:

  List of free ionic orbitals and eigenvalues:
    n    l      energy [Ha]    energy [eV]
    1    0      -914.099884    -24873.9234
    2    0      -131.248265     -3571.4470
    3    0       -24.332473      -662.1203
    4    0        -4.059276      -110.4585
    2    1      -117.724296     -3203.4411
    3    1       -19.913908      -541.8850
    4    1        -2.795328       -76.0648
    3    2       -12.908733      -351.2645
    4    2        -1.004248       -27.3270


  List of ionic basis orbitals and eigenvalues:
    n    l      energy [Ha]    energy [eV]    outer radius [A]
    5    1        -0.516938       -14.0666       5.427025

 
  Pd                   hydrogenic:
 
  List of hydrogenic basis orbitals: 
    n    l      effective z      eigenvalue [eV]  inner max. [A]     outer max. [A]     outer radius [A]   
    4    3         8.000000       -54.4226           1.054686           1.054686           4.629581
    5    4        10.000000       -54.4226           1.330451           1.330451           5.043202
    3    0         2.600000        -9.8948           0.150992           2.606197           5.493778
    3    2         2.500000        -9.3396           1.873517           1.873517           5.493778
 
 
  Se                   ion:

  List of free ionic orbitals and eigenvalues:
    n    l      energy [Ha]    energy [eV]
    1    0      -467.261007    -12714.8189
    2    0       -60.104893     -1635.5374
    3    0        -8.743714      -237.9286
    4    0        -1.414053       -38.4783
    2    1       -52.964156     -1441.2280
    3    1        -6.516916      -177.3343
    4    1        -0.961869       -26.1738
    3    2        -2.844511       -77.4031


  List of ionic basis orbitals and eigenvalues:
    n    l      energy [Ha]    energy [eV]    outer radius [A]
    4    0        -1.414046       -38.4782       4.083166

 
  Se                   hydrogenic:
 
  List of hydrogenic basis orbitals: 
    n    l      effective z      eigenvalue [eV]  inner max. [A]     outer max. [A]     outer radius [A]   
    3    2         4.300000       -27.9518           1.103845           1.103845           5.278265
    2    1         1.600000        -8.6828           1.326010           1.326010           5.475439
    4    3         7.200000       -44.0822           1.173422           1.173422           4.965294
 

  Adding cutoff potential to free-atom effective potential.
  Creating atomic-like basis functions for current effective potential.

  Species Pd                  :

  List of atomic basis orbitals and eigenvalues:
    n    l      energy [Ha]    energy [eV]    outer radius [A]
    1    0      -913.269104    -24851.3168       0.223280
    2    0      -130.434372     -3549.2998       0.615909
    3    0       -23.521804      -640.0609       1.414312
    4    0        -3.256918       -88.6253       3.581357
    5    0        -0.157260        -4.2793       5.427025
    2    1      -116.910756     -3181.3035       0.631154
    3    1       -19.103344      -519.8284       1.540671
    4    1        -1.998052       -54.3697       4.408641
    3    2       -12.098182      -329.2083       1.806051
    4    2        -0.243389        -6.6230       5.361084


  Species Se                  :

  List of atomic basis orbitals and eigenvalues:
    n    l      energy [Ha]    energy [eV]    outer radius [A]
    1    0      -466.337810    -12689.6975       0.309561
    2    0       -59.202598     -1610.9847       0.885812
    3    0        -7.847116      -213.5309       2.355489
    4    0        -0.634372       -17.2621       5.214131
    2    1       -52.061107     -1416.6548       0.907737
    3    1        -5.620941      -152.9536       2.694529
    4    1        -0.238469        -6.4891       5.408909
    3    2        -1.951949       -53.1152       4.083166

  Assembling full basis from fixed parts.
  | Species Pd :   atomic orbital   1 s accepted.
  | Species Pd :   atomic orbital   2 s accepted.
  | Species Pd :   atomic orbital   3 s accepted.
  | Species Pd :   atomic orbital   4 s accepted.
  | Species Pd :   atomic orbital   5 s accepted.
  | Species Pd :    hydro orbital   3 s accepted.
  | Species Pd :   atomic orbital   2 p accepted.
  | Species Pd :   atomic orbital   3 p accepted.
  | Species Pd :   atomic orbital   4 p accepted.
  | Species Pd :    ionic orbital   5 p accepted.
  | Species Pd :   atomic orbital   3 d accepted.
  | Species Pd :   atomic orbital   4 d accepted.
  | Species Pd :    hydro orbital   3 d accepted.
  | Species Pd :    hydro orbital   4 f accepted.
  | Species Pd :    hydro orbital   5 g accepted.
  | Species Se :   atomic orbital   1 s accepted.
  | Species Se :   atomic orbital   2 s accepted.
  | Species Se :   atomic orbital   3 s accepted.
  | Species Se :    ionic orbital   4 s accepted.
  | Species Se :   atomic orbital   4 s accepted.
  | Species Se :   atomic orbital   2 p accepted.
  | Species Se :   atomic orbital   3 p accepted.
  | Species Se :   atomic orbital   4 p accepted.
  | Species Se :    hydro orbital   2 p accepted.
  | Species Se :   atomic orbital   3 d accepted.
  | Species Se :    hydro orbital   3 d accepted.
  | Species Se :    hydro orbital   4 f accepted.
 
  Basis size parameters after reduction:
  | Total number of radial functions:       27
  | Total number of basis functions :      468
 
  Per-task memory consumption for arrays in subroutine allocate_ext:
  |           9.993344MB.
  Testing on-site integration grid accuracy.
  |  Species  Function  <phi|h_atom|phi> (log., in eV)  <phi|h_atom|phi> (rad., in eV)
           1        1             -24851.3167505682             -24851.3148165635
           1        2              -3549.2998457785              -3549.2998098031
           1        3               -640.0608571327               -640.0608534886
           1        4                -88.6252603131                -88.6252593316
           1        5                 -4.2849374515                 -4.2849400622
           1        6                  4.9432123540                  4.9432188418
           1        7              -3181.3035399559              -3181.3035364574
           1        8               -519.8284281886               -519.8284264063
           1        9                -54.3697495804                -54.3697489261
           1       10                  0.8628369484                  0.8628370487
           1       11               -329.2082917394               -329.2082912864
           1       12                 -6.6230267036                 -6.6230265076
           1       13                  5.4924295291                  5.4924115607
           1       14                 25.0740861942                 25.0740861175
           1       15                 38.8271273823                 38.8271278029
           2       16             -12689.6974611609             -12689.6967666984
           2       17              -1610.9846578580              -1610.9846472470
           2       18               -213.5308789869               -213.5308777267
           2       19                -17.0464428502                -17.0464426496
           2       20                  6.7356859379                  6.7356842047
           2       21              -1416.6548010133              -1416.6548002108
           2       22               -152.9535734377               -152.9535727493
           2       23                 -6.4896265677                 -6.4896303794
           2       24                  5.2703037283                  5.2701679583
           2       25                -53.1152220964                -53.1152219035
           2       26                  7.6186674138                  7.6186665630
           2       27                 23.1072799052                 23.1072803137

  Preparing densities etc. for the partition functions (integrals / Hartree potential).

  Preparations completed.
  max(cpu_time)          :      0.552 s.
  Wall clock time (cpu1) :      0.662 s.
------------------------------------------------------------

------------------------------------------------------------
          Begin self-consistency loop: Initialization.

          Date     :  20200420, Time     :  204040.399
------------------------------------------------------------

  Initializing index lists of integration centers etc. from given atomic structure:
  Mapping all atomic coordinates to central unit cell.

  Initializing the k-points
  Using symmetry for reducing the k-points
  | k-points reduced from:      800 to      404
  | Number of k-points                             :       404
  The eigenvectors in the calculations are COMPLEX.
  | K-points in task   0:        16
  | K-points in task   1:        17
  | K-points in task   2:        17
  | K-points in task   3:        17
  | K-points in task   4:        17
  | K-points in task   5:        17
  | K-points in task   6:        17
  | K-points in task   7:        17
  | K-points in task   8:        17
  | K-points in task   9:        17
  | K-points in task  10:        17
  | K-points in task  11:        17
  | K-points in task  12:        17
  | K-points in task  13:        17
  | K-points in task  14:        17
  | K-points in task  15:        17
  | K-points in task  16:        17
  | K-points in task  17:        17
  | K-points in task  18:        17
  | K-points in task  19:        17
  | K-points in task  20:        17
  | K-points in task  21:        16
  | K-points in task  22:        16
  | K-points in task  23:        16
  | Number of basis functions in the Hamiltonian integrals :      5582
  | Number of basis functions in a single unit cell        :       468
  | Number of centers in hartree potential         :      1321
  | Number of centers in hartree multipole         :       766
  | Number of centers in electron density summation:       595
  | Number of centers in basis integrals           :       640
  | Number of centers in integrals                 :       236
  | Number of centers in hamiltonian               :       596
  | Consuming        542 KiB for k_phase.
  | Number of super-cells (origin) [n_cells]                     :         567
  | Number of super-cells (after PM_index) [n_cells]             :          86
  | Number of super-cells in hamiltonian [n_cells_in_hamiltonian]:          86
  | Size of matrix packed + index [n_hamiltonian_matrix_size] :     1292485

  Initializing relaxation algorithms.
  | Estimated reciprocal-space cutoff momentum G_max:         2.42767468 bohr^-1 .
  | Reciprocal lattice points for long-range Hartree potential:     418
  Partitioning the integration grid into batches with parallel hashing+maxmin method.
  | Number of batches:     4181
  | Maximal batch size:     110
  | Minimal batch size:      50
  | Average batch size:      91.877
  | Standard deviation of batch sizes:      11.376

  Integration load balanced across    24 MPI tasks.
  Work distribution over tasks is as follows:
  Task     0 has      15993 integration points.
  Task     1 has      16027 integration points.
  Task     2 has      16021 integration points.
  Task     3 has      16037 integration points.
  Task     4 has      16026 integration points.
  Task     5 has      16019 integration points.
  Task     6 has      15994 integration points.
  Task     7 has      16040 integration points.
  Task     8 has      15976 integration points.
  Task     9 has      16023 integration points.
  Task    10 has      15969 integration points.
  Task    11 has      16001 integration points.
  Task    12 has      15993 integration points.
  Task    13 has      16002 integration points.
  Task    14 has      16036 integration points.
  Task    15 has      15987 integration points.
  Task    16 has      15969 integration points.
  Task    17 has      15975 integration points.
  Task    18 has      15988 integration points.
  Task    19 has      16040 integration points.
  Task    20 has      15988 integration points.
  Task    21 has      15968 integration points.
  Task    22 has      16022 integration points.
  Task    23 has      16042 integration points.
  Initializing partition tables, free-atom densities, potentials, etc. across the integration grid (initialize_grid_storage).
  | initialize_grid_storage: Actual outermost partition radius vs. multipole_radius_free
  | (-- VB: in principle, multipole_radius_free should be larger, hence this output)
  | Species        1: Confinement radius =              6.000000000000000 AA, multipole_radius_free =              6.058219618167466 AA.
  | Species        1: outer_partition_radius set to              6.058219618167466 AA .
  | Species        2: Confinement radius =              6.000000000000000 AA, multipole_radius_free =              6.037996416842453 AA.
  | Species        2: outer_partition_radius set to              6.037996416842453 AA .
  | The sparse table of interatomic distances needs       2897.83 kbyte instead of      3276.80 kbyte of memory.
  | Net number of integration points:   384136
  | of which are non-zero points    :   322162
  | Numerical average free-atom electrostatic potential    :    -17.05698294 eV
  Renormalizing the initial density to the exact electron count on the 3D integration grid.
  | Initial density: Formal number of electrons (from input files) :     456.0000000000
  | Integrated number of electrons on 3D grid     :     456.0000482776
  | Charge integration error                      :       0.0000482776
  | Normalization factor for density and gradient :       0.9999998941
  Renormalizing the free-atom superposition density to the exact electron count on the 3D integration grid.
  | Formal number of electrons (from input files) :     456.0000000000
  | Integrated number of electrons on 3D grid     :     456.0000482776
  | Charge integration error                      :       0.0000482776
  | Normalization factor for density and gradient :       0.9999998941
  Obtaining max. number of non-zero basis functions in each batch (get_n_compute_maxes).
  | Maximal number of non-zero basis functions:     1008 in task     0
  | Maximal number of non-zero basis functions:     1059 in task     1
  | Maximal number of non-zero basis functions:     1010 in task     2
  | Maximal number of non-zero basis functions:     1037 in task     3
  | Maximal number of non-zero basis functions:     1026 in task     4
  | Maximal number of non-zero basis functions:     1009 in task     5
  | Maximal number of non-zero basis functions:     1032 in task     6
  | Maximal number of non-zero basis functions:     1010 in task     7
  | Maximal number of non-zero basis functions:     1023 in task     8
  | Maximal number of non-zero basis functions:     1014 in task     9
  | Maximal number of non-zero basis functions:     1016 in task    10
  | Maximal number of non-zero basis functions:     1019 in task    11
  | Maximal number of non-zero basis functions:     1027 in task    12
  | Maximal number of non-zero basis functions:     1018 in task    13
  | Maximal number of non-zero basis functions:     1044 in task    14
  | Maximal number of non-zero basis functions:     1010 in task    15
  | Maximal number of non-zero basis functions:     1030 in task    16
  | Maximal number of non-zero basis functions:     1016 in task    17
  | Maximal number of non-zero basis functions:     1010 in task    18
  | Maximal number of non-zero basis functions:     1027 in task    19
  | Maximal number of non-zero basis functions:     1037 in task    20
  | Maximal number of non-zero basis functions:     1025 in task    21
  | Maximal number of non-zero basis functions:     1029 in task    22
  | Maximal number of non-zero basis functions:     1016 in task    23
  Allocating       33.592 MB for KS_eigenvector_complex
  Integrating Hamiltonian matrix: batch-based integration.
  Time summed over all CPUs for integration: real work       63.755 s, elapsed       64.277 s
  Integrating overlap matrix.
  Time summed over all CPUs for integration: real work       46.168 s, elapsed       46.598 s
  Decreasing sparse matrix size:
  | Tolerance:  0.1000E-12
  Hamiltonian matrix
  | Array has  1117809 nonzero elements out of  1292485 elements
  | Sparsity factor is 0.135
  Overlap matrix
  | Array has  1031480 nonzero elements out of  1292485 elements
  | Sparsity factor is 0.202
  New size of hamiltonian matrix:     1117894

  Updating Kohn-Sham eigenvalues and eigenvectors using ELSI and the (modified) LAPACK eigensolver.
  Singularity check in k-point 24, task 0 (analysis for other k-points/tasks may follow below):
  Overlap matrix is not singular
  | Lowest and highest eigenvalues :  0.7560E-03,  0.7260E+01
  Finished singularity check of overlap matrix
  | Time :     0.072 s
  Starting LAPACK eigensolver
  Finished Cholesky decomposition
  | Time :     0.018 s
  Finished transformation to standard eigenproblem
  | Time :     0.021 s
  Finished solving standard eigenproblem
  | Time :     0.072 s
  Finished back-transformation of eigenvectors
  | Time :     0.008 s

  Obtaining occupation numbers and chemical potential using ELSI.
  | Chemical potential (Fermi level):    -4.66275232 eV
  Writing Kohn-Sham eigenvalues.
  K-point:       1 at    0.000000    0.000000    0.000000 (in units of recip. lattice)

  State    Occupation    Eigenvalue [Ha]    Eigenvalue [eV]
      1       2.00000        -913.279528       -24851.60040
      2       2.00000        -913.279513       -24851.59998
      3       2.00000        -913.279510       -24851.59990
      4       2.00000        -913.279392       -24851.59670
      5       2.00000        -466.350384       -12690.03960
      6       2.00000        -466.350324       -12690.03799
      7       2.00000        -466.350269       -12690.03649
      8       2.00000        -466.350266       -12690.03640
      9       2.00000        -466.350262       -12690.03630
     10       2.00000        -466.350242       -12690.03576
     11       2.00000        -466.350215       -12690.03501
     12       2.00000        -466.350185       -12690.03420
     13       2.00000        -130.445113        -3549.59212
     14       2.00000        -130.445097        -3549.59170
     15       2.00000        -130.445094        -3549.59161
     16       2.00000        -130.444976        -3549.58839
     17       2.00000        -116.921521        -3181.59646
     18       2.00000        -116.921512        -3181.59622
     19       2.00000        -116.921506        -3181.59604
     20       2.00000        -116.921502        -3181.59595
     21       2.00000        -116.921497        -3181.59580
     22       2.00000        -116.921494        -3181.59572
     23       2.00000        -116.921458        -3181.59475
     24       2.00000        -116.921443        -3181.59433
     25       2.00000        -116.921439        -3181.59424
     26       2.00000        -116.921384        -3181.59273
     27       2.00000        -116.921375        -3181.59249
     28       2.00000        -116.921322        -3181.59104
     29       2.00000         -59.215599        -1611.33843
     30       2.00000         -59.215538        -1611.33678
     31       2.00000         -59.215482        -1611.33525
     32       2.00000         -59.215480        -1611.33518
     33       2.00000         -59.215475        -1611.33507
     34       2.00000         -59.215455        -1611.33451
     35       2.00000         -59.215427        -1611.33376
     36       2.00000         -59.215397        -1611.33293
     37       2.00000         -52.074114        -1417.00874
     38       2.00000         -52.074091        -1417.00811
     39       2.00000         -52.074055        -1417.00713
     40       2.00000         -52.074041        -1417.00674
     41       2.00000         -52.074029        -1417.00643
     42       2.00000         -52.073999        -1417.00561
     43       2.00000         -52.073995        -1417.00550
     44       2.00000         -52.073992        -1417.00542
     45       2.00000         -52.073981        -1417.00511
     46       2.00000         -52.073973        -1417.00489
     47       2.00000         -52.073972        -1417.00488
     48       2.00000         -52.073971        -1417.00486
     49       2.00000         -52.073966        -1417.00472
     50       2.00000         -52.073946        -1417.00417
     51       2.00000         -52.073943        -1417.00409
     52       2.00000         -52.073926        -1417.00361
     53       2.00000         -52.073922        -1417.00353
     54       2.00000         -52.073919        -1417.00342
     55       2.00000         -52.073919        -1417.00342
     56       2.00000         -52.073913        -1417.00327
     57       2.00000         -52.073898        -1417.00287
     58       2.00000         -52.073888        -1417.00259
     59       2.00000         -52.073871        -1417.00214
     60       2.00000         -52.073841        -1417.00131
     61       2.00000         -23.533309         -640.37391
     62       2.00000         -23.533292         -640.37346
     63       2.00000         -23.533289         -640.37337
     64       2.00000         -23.533162         -640.36993
     65       2.00000         -19.115105         -520.14846
     66       2.00000         -19.115088         -520.14802
     67       2.00000         -19.115082         -520.14784
     68       2.00000         -19.115017         -520.14606
     69       2.00000         -19.114999         -520.14558
     70       2.00000         -19.114998         -520.14557
     71       2.00000         -19.114955         -520.14439
     72       2.00000         -19.114868         -520.14203
     73       2.00000         -19.114479         -520.13145
     74       2.00000         -19.114464         -520.13104
     75       2.00000         -19.114461         -520.13095
     76       2.00000         -19.114339         -520.12762
     77       2.00000         -12.109912         -329.52746
     78       2.00000         -12.109894         -329.52699
     79       2.00000         -12.109891         -329.52689
     80       2.00000         -12.109876         -329.52649
     81       2.00000         -12.109859         -329.52602
     82       2.00000         -12.109855         -329.52592
     83       2.00000         -12.109762         -329.52340
     84       2.00000         -12.109727         -329.52244
     85       2.00000         -12.109530         -329.51707
     86       2.00000         -12.109514         -329.51665
     87       2.00000         -12.109509         -329.51651
     88       2.00000         -12.109473         -329.51553
     89       2.00000         -12.109457         -329.51509
     90       2.00000         -12.109455         -329.51505
     91       2.00000         -12.109390         -329.51326
     92       2.00000         -12.109386         -329.51315
     93       2.00000         -12.109374         -329.51284
     94       2.00000         -12.109371         -329.51276
     95       2.00000         -12.109330         -329.51164
     96       2.00000         -12.109248         -329.50940
     97       2.00000          -7.861919         -213.93369
     98       2.00000          -7.861847         -213.93173
     99       2.00000          -7.861786         -213.93008
    100       2.00000          -7.861784         -213.93002
    101       2.00000          -7.861777         -213.92983
    102       2.00000          -7.861754         -213.92920
    103       2.00000          -7.861723         -213.92837
    104       2.00000          -7.861689         -213.92745
    105       2.00000          -5.636325         -153.37220
    106       2.00000          -5.636265         -153.37058
    107       2.00000          -5.636200         -153.36880
    108       2.00000          -5.636190         -153.36854
    109       2.00000          -5.636184         -153.36838
    110       2.00000          -5.636163         -153.36781
    111       2.00000          -5.636125         -153.36676
    112       2.00000          -5.636094         -153.36592
    113       2.00000          -5.636081         -153.36556
    114       2.00000          -5.635997         -153.36327
    115       2.00000          -5.635930         -153.36145
    116       2.00000          -5.635921         -153.36120
    117       2.00000          -5.635909         -153.36089
    118       2.00000          -5.635896         -153.36053
    119       2.00000          -5.635834         -153.35884
    120       2.00000          -5.635809         -153.35816
    121       2.00000          -5.635403         -153.34713
    122       2.00000          -5.635333         -153.34521
    123       2.00000          -5.635280         -153.34378
    124       2.00000          -5.635276         -153.34366
    125       2.00000          -5.635269         -153.34348
    126       2.00000          -5.635250         -153.34295
    127       2.00000          -5.635224         -153.34226
    128       2.00000          -5.635190         -153.34132
    129       2.00000          -3.273978          -89.08947
    130       2.00000          -3.273954          -89.08883
    131       2.00000          -3.273949          -89.08869
    132       2.00000          -3.273765          -89.08368
    133       2.00000          -2.020294          -54.97499
    134       2.00000          -2.020272          -54.97440
    135       2.00000          -2.020220          -54.97299
    136       2.00000          -2.020006          -54.96715
    137       2.00000          -2.019279          -54.94737
    138       2.00000          -2.019272          -54.94719
    139       2.00000          -2.019222          -54.94582
    140       2.00000          -2.019007          -54.93999
    141       2.00000          -2.013048          -54.77783
    142       2.00000          -2.013038          -54.77756
    143       2.00000          -2.013032          -54.77740
    144       2.00000          -2.012869          -54.77296
    145       2.00000          -1.969339          -53.58843
    146       2.00000          -1.969232          -53.58553
    147       2.00000          -1.969156          -53.58347
    148       2.00000          -1.969130          -53.58274
    149       2.00000          -1.968266          -53.55924
    150       2.00000          -1.968196          -53.55735
    151       2.00000          -1.968120          -53.55528
    152       2.00000          -1.968101          -53.55474
    153       2.00000          -1.967808          -53.54678
    154       2.00000          -1.967778          -53.54596
    155       2.00000          -1.967703          -53.54392
    156       2.00000          -1.967688          -53.54351
    157       2.00000          -1.967686          -53.54345
    158       2.00000          -1.967637          -53.54213
    159       2.00000          -1.967559          -53.54002
    160       2.00000          -1.967550          -53.53976
    161       2.00000          -1.967390          -53.53542
    162       2.00000          -1.967351          -53.53435
    163       2.00000          -1.967344          -53.53415
    164       2.00000          -1.967297          -53.53288
    165       2.00000          -1.967286          -53.53257
    166       2.00000          -1.967273          -53.53223
    167       2.00000          -1.967260          -53.53186
    168       2.00000          -1.967235          -53.53120
    169       2.00000          -1.967234          -53.53117
    170       2.00000          -1.967218          -53.53071
    171       2.00000          -1.967214          -53.53060
    172       2.00000          -1.967203          -53.53032
    173       2.00000          -1.967163          -53.52924
    174       2.00000          -1.967157          -53.52905
    175       2.00000          -1.967145          -53.52873
    176       2.00000          -1.967119          -53.52803
    177       2.00000          -1.966718          -53.51713
    178       2.00000          -1.966676          -53.51597
    179       2.00000          -1.966614          -53.51429
    180       2.00000          -1.966602          -53.51396
    181       2.00000          -1.966364          -53.50748
    182       2.00000          -1.966329          -53.50654
    183       2.00000          -1.966264          -53.50475
    184       2.00000          -1.966258          -53.50460
    185       2.00000          -0.759533          -20.66795
    186       2.00000          -0.740757          -20.15703
    187       2.00000          -0.720550          -19.60715
    188       2.00000          -0.718800          -19.55955
    189       2.00000          -0.652602          -17.75821
    190       2.00000          -0.640674          -17.43364
    191       2.00000          -0.639301          -17.39627
    192       2.00000          -0.627543          -17.07632
    193       2.00000          -0.418463          -11.38695
    194       2.00000          -0.410671          -11.17492
    195       2.00000          -0.389374          -10.59540
    196       2.00000          -0.376439          -10.24344
    197       2.00000          -0.370657          -10.08608
    198       2.00000          -0.369205          -10.04659
    199       2.00000          -0.366665           -9.97746
    200       2.00000          -0.366184           -9.96436
    201       2.00000          -0.364722           -9.92460
    202       2.00000          -0.363019           -9.87824
    203       2.00000          -0.361268           -9.83060
    204       2.00000          -0.351765           -9.57203
    205       2.00000          -0.341789           -9.30054
    206       2.00000          -0.330804           -9.00163
    207       2.00000          -0.324448           -8.82868
    208       2.00000          -0.316430           -8.61051
    209       2.00000          -0.316283           -8.60650
    210       2.00000          -0.306234           -8.33305
    211       2.00000          -0.288643           -7.85437
    212       2.00000          -0.286388           -7.79302
    213       2.00000          -0.285198           -7.76064
    214       2.00000          -0.280064           -7.62092
    215       2.00000          -0.279108           -7.59492
    216       2.00000          -0.277248           -7.54431
    217       2.00000          -0.276233           -7.51667
    218       2.00000          -0.275682           -7.50168
    219       2.00000          -0.273687           -7.44740
    220       2.00000          -0.270345           -7.35646
    221       2.00000          -0.265362           -7.22087
    222       2.00000          -0.263640           -7.17400
    223       2.00000          -0.263342           -7.16589
    224       2.00000          -0.257766           -7.01416
    225       2.00000          -0.224330           -6.10433
    226       2.00000          -0.215286           -5.85824
    227       2.00000          -0.213023           -5.79666
    228       0.00000          -0.164928           -4.48791
    229       0.00000          -0.152301           -4.14432
    230       0.00000          -0.135257           -3.68054
    231       0.00000          -0.129945           -3.53599
    232       0.00000          -0.128597           -3.49930
    233       0.00000          -0.125756           -3.42199
    234       0.00000          -0.115549           -3.14426
    235       0.00000          -0.114856           -3.12538
    236       0.00000          -0.082030           -2.23216
    237       0.00000          -0.037417           -1.01816
    238       0.00000          -0.030335           -0.82545
    239       0.00000          -0.003051           -0.08303
    240       0.00000           0.021406            0.58248
    241       0.00000           0.025499            0.69386
    242       0.00000           0.026904            0.73210
    243       0.00000           0.057163            1.55548
    244       0.00000           0.089380            2.43216
    245       0.00000           0.102593            2.79169
    246       0.00000           0.111333            3.02954
    247       0.00000           0.118841            3.23384
    248       0.00000           0.122567            3.33521
    249       0.00000           0.125216            3.40729
    250       0.00000           0.125679            3.41989
    251       0.00000           0.137296            3.73603
    252       0.00000           0.151551            4.12391
    253       0.00000           0.160469            4.36660
    254       0.00000           0.171267            4.66042
    255       0.00000           0.176814            4.81134
    256       0.00000           0.189455            5.15534
    257       0.00000           0.191798            5.21910
    258       0.00000           0.198306            5.39618
    259       0.00000           0.219948            5.98508
    260       0.00000           0.231485            6.29902
    261       0.00000           0.247714            6.74065
    262       0.00000           0.257764            7.01413
    263       0.00000           0.267109            7.26840
    264       0.00000           0.280482            7.63231
    265       0.00000           0.281005            7.64652
[...]
  |                x                y                z                |
  |                                                                   |
  |  x        -0.00009313       0.00000750       0.00001563           |
  |  y         0.00000750       0.00020847       0.00000626           |
  |  z         0.00001563       0.00000626       0.00000984           |
  |                                                                   |
  |  Pressure:      -0.00004173   [eV/A**3]                           |
  |                                                                   |
  +-------------------------------------------------------------------+

 * Warning: Stress tensor is anisotropic. Be aware that pressure is an isotropic quantity.


  Leaving Libmbd.

  Timings for VdW correction (Tkatchenko-Scheffler 2009 or later):
  | CPU time:        6.163 s, Wall clock time:        6.164 s.
  Removing unitary transformations (pure translations, rotations) from forces on atoms.
  Atomic forces before filtering:
  | Net force on center of mass :  -0.164533E-04  0.284957E-05  0.108364E-04 eV/A
  Atomic forces after filtering:
  | Net force on center of mass :   0.000000E+00 -0.139380E-17  0.174225E-18 eV/A

  Energy and forces in a compact form:
  | Total energy uncorrected      :         -0.108791111498156E+07 eV
  | Total energy corrected        :         -0.108791111609234E+07 eV  <-- do not rely on this value for anything but (periodic) metals
  | Electronic free energy        :         -0.108791111720312E+07 eV
  Total atomic forces (unitary forces cleaned) [eV/Ang]:
  |    1          0.832494371554758E-03         -0.369819618007413E-02          0.258498757690556E-02
  |    2         -0.405447797614173E-03          0.240586835507213E-03         -0.144287507411143E-02
  |    3         -0.235295158949483E-02         -0.247618299719464E-02          0.204986327173398E-02
  |    4          0.898417708668705E-03          0.621512478651205E-03         -0.117647153513274E-02
  |    5         -0.883269850435055E-03         -0.973649214669017E-03         -0.157492321063084E-03
  |    6          0.210016926881922E-02          0.418983695635961E-02          0.767290953561747E-03
  |    7         -0.152597913260134E-02          0.634997863788469E-03         -0.560141945240377E-03
  |    8         -0.126880534578760E-02          0.235988415630177E-02          0.992103248799324E-03
  |    9          0.444850966859798E-03         -0.158625275081147E-03         -0.790409423046830E-03
  |   10         -0.382482488852743E-03         -0.125238909741052E-02         -0.120756468421046E-02
  |   11          0.137743721071248E-02         -0.417175944238507E-03          0.188958206168954E-03
  |   12          0.116556667817078E-02          0.929400418059700E-03         -0.124824827436464E-02

  ------------------------------------ 
  Start decomposition of the XC Energy 
  ------------------------------------ 
  X and C from original XC functional choice 
  Hartree-Fock Energy :          0.000000000 Ha              0.000000000 eV
  X Energy            :      -1261.087892180 Ha         -34315.947522396 eV
  C Energy            :        -23.236394389 Ha           -632.294462105 eV
  Total XC Energy     :      -1284.324286568 Ha         -34948.241984501 eV
  ------------------------------------ 
  LDA X and C from self-consistent density 
  X Energy LDA        :      -1197.517108917 Ha         -32586.098496062 eV
  C Energy LDA        :        -42.068112423 Ha          -1144.731582322 eV
  ------------------------------------ 
  End decomposition of the XC Energy 
  ------------------------------------ 

------------------------------------------------------------
  Relaxation / MD: End force evaluation.       :  max(cpu_time)    wall_clock(cpu1)
  | Time for this force evaluation             :      333.386 s         333.955 s

------------------------------------------------------------
  Geometry optimization: Attempting to predict improved coordinates.

  +-------------------------------------------------------------------+
  | Generalized derivatives on lattice vectors [eV/A]                 |
  +-------------------------------------------------------------------+
  |lattice_vector      -0.00417230       0.00033593       0.00070037  |
  |lattice_vector       0.00032968       0.00916610       0.00027523  |
  |lattice_vector       0.00054366       0.00021769       0.00034222  |
  +-------------------------------------------------------------------+
  | Forces on lattice vectors cleaned from atomic contributions [eV/A]|
  +-------------------------------------------------------------------+
  |lattice_vector       0.00417230      -0.00033593      -0.00070037  |
  |lattice_vector      -0.00032968      -0.00916610      -0.00027523  |
  |lattice_vector      -0.00054366      -0.00021769      -0.00034222  |
  +-------------------------------------------------------------------+
  Symmetrized total atomic cartesian forces [eV/Ang]:
  |   1     0.8324943716E-03    -0.3698196180E-02     0.2584987577E-02
  |   2    -0.4054477976E-03     0.2405868355E-03    -0.1442875074E-02
  |   3    -0.2352951589E-02    -0.2476182997E-02     0.2049863272E-02
  |   4     0.8984177087E-03     0.6215124787E-03    -0.1176471535E-02
  |   5    -0.8832698504E-03    -0.9736492147E-03    -0.1574923211E-03
  |   6     0.2100169269E-02     0.4189836956E-02     0.7672909536E-03
  |   7    -0.1525979133E-02     0.6349978638E-03    -0.5601419452E-03
  |   8    -0.1268805346E-02     0.2359884156E-02     0.9921032488E-03
  |   9     0.4448509669E-03    -0.1586252751E-03    -0.7904094230E-03
  |  10    -0.3824824889E-03    -0.1252389097E-02    -0.1207564684E-02
  |  11     0.1377437211E-02    -0.4171759442E-03     0.1889582062E-03
  |  12     0.1165566678E-02     0.9294004181E-03    -0.1248248274E-02
  +-------------------------------------------------------------------+
  | Symmetrized forces on lattice vectors cleaned from symmetrized
  | atomic contributions [eV/A]|
  +-------------------------------------------------------------------+
  |lattice_vector       0.00417230       0.00000000       0.00000000  |
  |lattice_vector       0.00000000      -0.00916610       0.00000000  |
  |lattice_vector       0.00000000       0.00000000      -0.00034222  |
  +-------------------------------------------------------------------+
  Removing unitary transformations (pure translations, rotations) from forces on atoms.
  Atomic forces before filtering:
  | Net force on center of mass :  -0.348449E-18 -0.174225E-17  0.174225E-18 eV/A
  Atomic forces after filtering:
  | Net force on center of mass :  -0.348449E-18 -0.156802E-17  0.174225E-18 eV/A
  Net remaining forces (excluding translations, rotations) in present geometry:
  || Forces on atoms   || =   0.418984E-02 eV/A.
  || Forces on lattice || =   0.916610E-02 eV/A^3.
  Maximum force component is  0.916610E-02 eV/A.
  Present geometry is converged.

  Symmetry-reduced parameters:
  | atomic   1          0.502103655627966E+00
  | atomic   2          0.220403801108522E-02
  | atomic   3          0.192437994999803E-02
  | atomic   4          0.216027625524223E-02
  | atomic   5          0.217399900491747E-02
  | atomic   6          0.502459401280056E+00
  | atomic   7          0.231234978092048E-02
  | atomic   8          0.502181160829728E+00
  | atomic   9          0.193391284978782E-02
  | atomic  10          0.502230358717073E+00
  | atomic  11          0.502178648785721E+00
  | atomic  12          0.502444080158114E+00
  | atomic  13          0.614322110785592E+00
  | atomic  14          0.120622757279028E+00
  | atomic  15          0.405669965589412E+00
  | atomic  16          0.890072653737104E+00
  | atomic  17          0.883766377744711E+00
  | atomic  18          0.905445019302947E+00
  | atomic  19          0.114286727479934E+00
  | atomic  20          0.383825416767296E+00
  | atomic  21          0.598963331148179E+00
  | atomic  22          0.390151477522802E+00
  | atomic  23          0.620583451869984E+00
  | atomic  24          0.987345236130924E-01
  | atomic  25          0.390131356909614E+00
  | atomic  26          0.883843164517555E+00
  | atomic  27          0.598971000995964E+00
  | atomic  28          0.114269121960507E+00
  | atomic  29          0.120605569561774E+00
  | atomic  30          0.987430408457584E-01
  | atomic  31          0.890075093192055E+00
  | atomic  32          0.620610357689105E+00
  | atomic  33          0.405669055550051E+00
  | atomic  34          0.614294440523945E+00
  | atomic  35          0.383814714088800E+00
  | atomic  36          0.905451916232912E+00
  | lattice  1          0.584211680796141E+01
  | lattice  2          0.595279793176065E+01
  | lattice  3          0.752609328136958E+01
  Symmetry-reduced forces:
  | atomic   1          0.486352936059332E-02
  | atomic   2         -0.220146145719904E-01
  | atomic   3          0.194548576349728E-01
  | atomic   4         -0.236867339319270E-02
  | atomic   5          0.143216481681618E-02
  | atomic   6         -0.108592124011257E-01
  | atomic   7         -0.137462180293073E-01
  | atomic   8         -0.147402170243611E-01
  | atomic   9          0.154274621971233E-01
  | atomic  10          0.524866119638362E-02
  | atomic  11          0.369973819747833E-02
  | atomic  12         -0.885423451628508E-02
  | atomic  13         -0.516016563919220E-02
  | atomic  14         -0.579593703134211E-02
  | atomic  15         -0.118530189942018E-02
  | atomic  16          0.122694341849328E-01
  | atomic  17          0.249412527682318E-01
  | atomic  18          0.577470329045672E-02
  | atomic  19         -0.891494833916866E-02
  | atomic  20          0.378001397023243E-02
  | atomic  21         -0.421568053068689E-02
  | atomic  22         -0.741250903665705E-02
  | atomic  23          0.140479135248279E-01
  | atomic  24          0.746666159521353E-02
  | atomic  25          0.259887131052951E-02
  | atomic  26         -0.944264209428016E-03
  | atomic  27         -0.594869504832395E-02
  | atomic  28         -0.223450737687752E-02
  | atomic  29         -0.745521922882496E-02
  | atomic  30         -0.908824445665553E-02
  | atomic  31          0.804714908061487E-02
  | atomic  32         -0.248336409804328E-02
  | atomic  33          0.142211708590781E-02
  | atomic  34          0.680937668134126E-02
  | atomic  35          0.553253288640326E-02
  | atomic  36         -0.939443295117689E-02
  | lattice  1          0.417230370288443E-02
  | lattice  2         -0.916609893191178E-02
  | lattice  3         -0.342220279178120E-03
------------------------------------------------------------
  Final atomic structure:
                         x [A]             y [A]             z [A]
  lattice_vector         5.84211681        0.00000000        0.00000000
  lattice_vector         0.00000000        5.95279793        0.00000000
  lattice_vector         0.00000000        0.00000000        7.52609328

            atom        -2.90876860        0.01312019        0.01448306  Pd
            atom         0.01262059        0.01294138       -3.74453696  Pd
            atom         0.01350902       -2.96341496        0.01455481  Pd
            atom        -2.90802839       -2.96342991       -3.74465227  Pd
            atom        -2.25317528        0.71804290        3.05311000  Se
            atom        -0.64220840       -0.69191527       -0.71162960  Se
            atom         0.66767641        2.28483515       -3.01823938  Se
            atom         2.27931050       -2.25859004        0.74308523  Se
            atom         2.27919296       -0.69145817       -3.01818166  Se
            atom         0.66757356        0.71794059        0.74314934  Se
            atom        -0.64219415       -2.25842988        3.05310315  Se
            atom        -2.25333693        2.28477144       -0.71157770  Se

  Fractional coordinates:
                         L1                L2                L3
       atom_frac        -0.49789634        0.00220404        0.00192438  Pd
       atom_frac         0.00216028        0.00217400       -0.49754060  Pd
       atom_frac         0.00231235       -0.49781884        0.00193391  Pd
       atom_frac        -0.49776964       -0.49782135       -0.49755592  Pd
       atom_frac        -0.38567789        0.12062276        0.40566997  Se
       atom_frac        -0.10992735       -0.11623362       -0.09455498  Se
       atom_frac         0.11428673        0.38382542       -0.40103667  Se
       atom_frac         0.39015148       -0.37941655        0.09873452  Se
       atom_frac         0.39013136       -0.11615684       -0.40102900  Se
       atom_frac         0.11426912        0.12060557        0.09874304  Se
       atom_frac        -0.10992491       -0.37938964        0.40566906  Se
       atom_frac        -0.38570556        0.38381471       -0.09454808  Se
------------------------------------------------------------

------------------------------------------------------------------------------
  Final output of selected total energy values:

  The following output summarizes some interesting total energy values
  at the end of a run (AFTER all relaxation, molecular dynamics, etc.).

  | Total energy of the DFT / Hartree-Fock s.c.f. calculation      :       -1087911.114981557 eV
  | Final zero-broadening corrected energy (caution - metals only) :       -1087911.116092341 eV
  | For reference only, the value of 1 Hartree used in FHI-aims is :             27.211384500 eV
  | For reference only, the overall average (free atom contribution
  | + realspace contribution) of the electrostatic potential after
  | s.c.f. convergence is                                          :            -16.928117078 eV

  Before relying on these values, please be sure to understand exactly which
  total energy value is referred to by a given number. Different objects may
  all carry the same name 'total energy'. Definitions:

  Total energy of the DFT / Hartree-Fock s.c.f. calculation:
  | Note that this energy does not include ANY quantities calculated after the
  | s.c.f. cycle, in particular not ANY RPA, MP2, etc. many-body perturbation terms.

  Final zero-broadening corrected energy:
  | For metallic systems only, a broadening of the occupation numbers at the Fermi
  | level can be extrapolated back to zero broadening by an electron-gas inspired
  | formula. For all systems that are not real metals, this value can be
  | meaningless and should be avoided.

------------------------------------------------------------------------------
  Methods described in the following list of references were used in this FHI-aims run.
  If you publish the results, please make sure to cite these reference if they apply.
  FHI-aims is an academic code, and for our developers (often, Ph.D. students
  and postdocs), scientific credit in the community is essential.
  Thank you for helping us!

  For any use of FHI-aims, please cite:

    Volker Blum, Ralf Gehrke, Felix Hanke, Paula Havu, Ville Havu,
    Xinguo Ren, Karsten Reuter, and Matthias Scheffler
    'Ab initio molecular simulations with numeric atom-centered orbitals'
    Computer Physics Communications 180, 2175-2196 (2009)
    http://dx.doi.org/10.1016/j.cpc.2009.06.022


  For the analytical stress tensor used in your run, please cite:

    Franz Knuth, Christian Carbogno, Viktor Atalla, Volker Blum, Matthias Scheffler
    'All-electron formalism for total energy strain derivatives and
    stress tensor components for numeric atom-centered orbitals'
    Computer Physics Communications 190, 33-50 (2015).
    http://dx.doi.org/10.1016/j.cpc.2015.01.003


  The provided symmetry information was generated with SPGlib:

    Atsushi Togo, Yusuke Seto, Dimitar Pashov
    SPGlib 1.7.3 obtained from http://spglib.sourceforge.net
    Copyright (C) 2008 Atsushi Togo


  The ELSI infrastructure was used in your run to solve the Kohn-Sham electronic structure.
  Please check out http://elsi-interchange.org to learn more.
  If scalability is important for your project, please acknowledge ELSI by citing:

    V. W-z. Yu, F. Corsetti, A. Garcia, W. P. Huhn, M. Jacquelin, W. Jia,
    B. Lange, L. Lin, J. Lu, W. Mi, A. Seifitokaldani, A. Vazquez-Mayagoitia,
    C. Yang, H. Yang, and V. Blum
    'ELSI: A unified software interface for Kohn-Sham electronic structure solvers'
    Computer Physics Communications 222, 267-285 (2018).
    http://dx.doi.org/10.1016/j.cpc.2017.09.007


  For the real-space grid partitioning and parallelization used in this calculation, please cite:

    Ville Havu, Volker Blum, Paula Havu, and Matthias Scheffler,
    'Efficient O(N) integration for all-electron electronic structure calculation'
    'using numerically tabulated basis functions'
    Journal of Computational Physics 228, 8367-8379 (2009).
    http://dx.doi.org/10.1016/j.jcp.2009.08.008

  Of course, there are many other important community references, e.g., those cited in the
  above references. Our list is limited to references that describe implementations in the
  FHI-aims code. The reason is purely practical (length of this list) - please credit others as well.

------------------------------------------------------------
          Leaving FHI-aims.
          Date     :  20200420, Time     :  211352.885

          Computational steps:
          | Number of self-consistency cycles          :           99
          | Number of SCF (re)initializations          :            5
          | Number of relaxation steps                 :            4

          Detailed time accounting                     :  max(cpu_time)    wall_clock(cpu1)
          | Total time                                 :     1992.584 s        1994.107 s
          | Preparation time                           :        0.552 s           0.662 s
          | Boundary condition initalization           :        0.721 s           0.718 s
          | Grid partitioning                          :        1.826 s           1.825 s
          | Preloading free-atom quantities on grid    :        4.583 s           4.584 s
          | Free-atom superposition energy             :        0.686 s           0.687 s
          | Total time for integrations                :      278.128 s         278.124 s
          | Total time for solution of K.-S. equations :      243.998 s         244.077 s
          | Total time for EV reorthonormalization     :        3.229 s           3.066 s
          | Total time for density & force components  :     1122.249 s        1122.321 s
          | Total time for mixing & preconditioning    :       75.682 s          75.737 s
          | Total time for Hartree multipole update    :        0.471 s           0.457 s
          | Total time for Hartree multipole sum       :      227.153 s         227.158 s
          | Total time for total energy evaluation     :        0.349 s           0.361 s
          | Total time for scaled ZORA corrections     :        0.000 s           0.000 s
          | Total time for vdW correction              :       30.721 s          30.732 s

          Partial memory accounting:
          | Residual value for overall tracked memory usage across tasks:     0.000000 MB (should be 0.000000 MB)
          | Peak values for overall tracked memory usage:
          |   Minimum:      113.694 MB (on task 23 after allocating d_wave)
          |   Maximum:      118.980 MB (on task 10 after allocating d_wave)
          |   Average:      117.528 MB
          | Largest tracked array allocation:
          |   Minimum:       33.592 MB (KS_eigenvector_complex on task  0)
          |   Maximum:       35.691 MB (KS_eigenvector_complex on task  1)
          |   Average:       35.341 MB
          Note:  These values currently only include a subset of arrays which are explicitly tracked.
          The "true" memory usage will be greater.

          Have a nice day.
------------------------------------------------------------
