------------------------------------------------------------
          Invoking FHI-aims ...

          When using FHI-aims, please cite the following reference:

          Volker Blum, Ralf Gehrke, Felix Hanke, Paula Havu,
          Ville Havu, Xinguo Ren, Karsten Reuter, and Matthias Scheffler,
          'Ab Initio Molecular Simulations with Numeric Atom-Centered Orbitals',
          Computer Physics Communications 180, 2175-2196 (2009)

          For any questions about FHI-aims, please visit the aimsclub website
          with its forums and wiki. Contributions to both the forums and the
          wiki are warmly encouraged - they are for you, and everyone is welcome there.

------------------------------------------------------------



  Date     :  20200402, Time     :  183354.986
  Time zero on CPU 1             :   0.888690000000000E-01  s.
  Internal wall clock time zero  :           355084434.986  s.

  FHI-aims created a unique identifier for this run for later identification
  aims_uuid : 05BE852B-ED20-4700-AE7B-0F65D768EFB4

  Build configuration of the current instance of FHI-aims
  -------------------------------------------------------
  FHI-aims version      : 200112
  Commit number         : 23daeca3f
  CMake host system     : Linux-3.10.0-693.21.1.el7.x86_64
  CMake version         : 3.13.3
  Fortran compiler      : /sw/installed/impi/2018.4.274-iccifort-2019.1.144-GCC-8.2.0-2.31.1/bin64/mpiifort (Intel) version 19.0.0.20181018
  Fortran compiler flags: -O3 -ip -fp-model precise
  C compiler            : /sw/installed/impi/2018.4.274-iccifort-2019.1.144-GCC-8.2.0-2.31.1/bin64/mpiicc (Intel) version 19.0.0.20181018
  C compiler flags      : -O3 -ip -fp-model precise
  Architecture          :
  Using MPI
  Using Scalapack
  Using C files
  Using LibXC
  Using SPGlib
  Using i-PI
  Using RLSY
  Linking against: /sw/installed/imkl/2019.1.144-iimpi-2019a/mkl/lib/intel64/libmkl_intel_lp64.so
                   /sw/installed/imkl/2019.1.144-iimpi-2019a/mkl/lib/intel64/libmkl_sequential.so
                   /sw/installed/imkl/2019.1.144-iimpi-2019a/mkl/lib/intel64/libmkl_core.so
                   /sw/installed/imkl/2019.1.144-iimpi-2019a/mkl/lib/intel64/libmkl_blacs_intelmpi_lp64.so
                   /sw/installed/imkl/2019.1.144-iimpi-2019a/mkl/lib/intel64/libmkl_scalapack_lp64.so

  Using       24 parallel tasks.
  Task        0 on host taurusi6541.taurus.hrsk.tu-dresden.de reporting.
  Task        1 on host taurusi6541.taurus.hrsk.tu-dresden.de reporting.
  Task        2 on host taurusi6541.taurus.hrsk.tu-dresden.de reporting.
  Task        3 on host taurusi6541.taurus.hrsk.tu-dresden.de reporting.
  Task        4 on host taurusi6541.taurus.hrsk.tu-dresden.de reporting.
  Task        5 on host taurusi6541.taurus.hrsk.tu-dresden.de reporting.
  Task        6 on host taurusi6541.taurus.hrsk.tu-dresden.de reporting.
  Task        7 on host taurusi6541.taurus.hrsk.tu-dresden.de reporting.
  Task        8 on host taurusi6541.taurus.hrsk.tu-dresden.de reporting.
  Task        9 on host taurusi6541.taurus.hrsk.tu-dresden.de reporting.
  Task       10 on host taurusi6541.taurus.hrsk.tu-dresden.de reporting.
  Task       11 on host taurusi6541.taurus.hrsk.tu-dresden.de reporting.
  Task       12 on host taurusi6541.taurus.hrsk.tu-dresden.de reporting.
  Task       13 on host taurusi6541.taurus.hrsk.tu-dresden.de reporting.
  Task       14 on host taurusi6541.taurus.hrsk.tu-dresden.de reporting.
  Task       15 on host taurusi6541.taurus.hrsk.tu-dresden.de reporting.
  Task       16 on host taurusi6541.taurus.hrsk.tu-dresden.de reporting.
  Task       17 on host taurusi6541.taurus.hrsk.tu-dresden.de reporting.
  Task       18 on host taurusi6541.taurus.hrsk.tu-dresden.de reporting.
  Task       19 on host taurusi6541.taurus.hrsk.tu-dresden.de reporting.
  Task       20 on host taurusi6541.taurus.hrsk.tu-dresden.de reporting.
  Task       21 on host taurusi6541.taurus.hrsk.tu-dresden.de reporting.
  Task       22 on host taurusi6541.taurus.hrsk.tu-dresden.de reporting.
  Task       23 on host taurusi6541.taurus.hrsk.tu-dresden.de reporting.

  Performing system and environment tests:
  | Environment variable OMP_NUM_THREADS correctly set to 1.
  | Maximum stacksize for task 0: unlimited
  | Maximum stacksize for task 1: unlimited
  | Maximum stacksize for task 2: unlimited
  | Maximum stacksize for task 3: unlimited
  | Maximum stacksize for task 4: unlimited
  | Maximum stacksize for task 5: unlimited
  | Maximum stacksize for task 6: unlimited
  | Maximum stacksize for task 7: unlimited
  | Maximum stacksize for task 8: unlimited
  | Maximum stacksize for task 9: unlimited
  | Maximum stacksize for task 10: unlimited
  | Maximum stacksize for task 11: unlimited
  | Maximum stacksize for task 12: unlimited
  | Maximum stacksize for task 13: unlimited
  | Maximum stacksize for task 14: unlimited
  | Maximum stacksize for task 15: unlimited
  | Maximum stacksize for task 16: unlimited
  | Maximum stacksize for task 17: unlimited
  | Maximum stacksize for task 18: unlimited
  | Maximum stacksize for task 19: unlimited
  | Maximum stacksize for task 20: unlimited
  | Maximum stacksize for task 21: unlimited
  | Maximum stacksize for task 22: unlimited
  | Maximum stacksize for task 23: unlimited
  | Current stacksize for task 0: unlimited
  | Current stacksize for task 1: unlimited
  | Current stacksize for task 2: unlimited
  | Current stacksize for task 3: unlimited
  | Current stacksize for task 4: unlimited
  | Current stacksize for task 5: unlimited
  | Current stacksize for task 6: unlimited
  | Current stacksize for task 7: unlimited
  | Current stacksize for task 8: unlimited
  | Current stacksize for task 9: unlimited
  | Current stacksize for task 10: unlimited
  | Current stacksize for task 11: unlimited
  | Current stacksize for task 12: unlimited
  | Current stacksize for task 13: unlimited
  | Current stacksize for task 14: unlimited
  | Current stacksize for task 15: unlimited
  | Current stacksize for task 16: unlimited
  | Current stacksize for task 17: unlimited
  | Current stacksize for task 18: unlimited
  | Current stacksize for task 19: unlimited
  | Current stacksize for task 20: unlimited
  | Current stacksize for task 21: unlimited
  | Current stacksize for task 22: unlimited
  | Current stacksize for task 23: unlimited
  | Checking for scalapack...
  | Testing pdtran()...
  | All pdtran() tests passed.

  Obtaining array dimensions for all initial allocations:
  
  -----------------------------------------------------------------------
  Parsing control.in (first pass over file, find array dimensions only).
  The contents of control.in will be repeated verbatim below
  unless switched off by setting 'verbatim_writeout .false.' .
  in the first line of control.in .
  -----------------------------------------------------------------------
  
  #===============================================================================
  # FHI-aims file: ./control.in
  # Created using the Atomic Simulation Environment (ASE)
  # Thu Apr  2 11:24:44 2020
  #===============================================================================
  xc                                 pbe
  # include_spin_orbit
  # vdw_correction_hirshfeld
  many_body_dispersion_nl 	 beta=0.81
  spin                               none
  k_grid 	 	 14 14 1
  relativistic                       atomic_zora scalar
  ### SCF settings
  adjust_scf 	 always 	 3
  # frozen_core_scf 	 .true.
  # charge_mix_param  0.05
  # occupation_type 	 gaussian 	 0.01
  # sc_accuracy_eev   1E-3 	 	 # sum of eigenvalues convergence
  # sc_accuracy_etot  1E-6 	 	 # total energy convergence
  # sc_accuracy_rho   1E-3 	 	 # electron density convergence
  # elsi_restart 	 read_and_write 	 1000
  ### geometry optimisation section
  relax_geometry 	 bfgs 	 1E-2
  relax_unit_cell 	 full
  #===============================================================================
  
  ################################################################################
  #
  #  FHI-aims code project
  # Volker Blum, Fritz Haber Institute Berlin, 2009
  #
  #  Suggested "tight" defaults for Se atom (to be pasted into control.in file)
  #
  ################################################################################
    species        Se
  #     global species definitions
      nucleus             34
      mass                78.96
  #
      l_hartree           6
  #
      cut_pot             4.0          2.0  1.0
      basis_dep_cutoff    1e-4
  #
      radial_base         55 7.0
      radial_multiplier   2
      angular_grids       specified
        division   0.0830  110
        division   0.1357  194
        division   0.7377  302
        division   0.8610  434
  #      division   0.9640  590
  #      division   1.0773  770
  #      division   2.5539  974
  #      outer_grid  974
        outer_grid  434
  ################################################################################
  #
  #  Definition of "minimal" basis
  #
  ################################################################################
  #     valence basis states
      valence      4  s   2.
      valence      4  p   4.
      valence      3  d  10.
  #     ion occupancy
      ion_occ      4  s   1.
      ion_occ      4  p   3.
      ion_occ      3  d  10.
  ################################################################################
  #
  #  Suggested additional basis functions. For production calculations,
  #  uncomment them one after another (the most important basis functions are
  #  listed first).
  #
  #  Constructed for dimers: 1.85 A, 2.15 A, 2.50 A, 3.00 A, 4.00 A
  #
  ################################################################################
  #  "First tier" - improvements: -336.21 meV to -36.85 meV
       hydro 3 d 4.3
       hydro 2 p 1.6
       hydro 4 f 7.2
       ionic 4 s auto
  #  "Second tier" - improvements: -14.39 meV to -1.49 meV
  #     hydro 5 g 10.4
  #     hydro 4 p 4.5
  #     hydro 4 d 6.2
  #     hydro 4 f 11.2
  #     hydro 1 s 0.65
  #     hydro 6 h 15.2
  #  "Third tier" - improvements: -0.46 meV and below
  #     hydro 5 g 14.4
  #     ionic 4 d auto
  #     hydro 4 f 22.4
  #     hydro 5 f 7.4
  #     hydro 5 p 8
  #     hydro 5 s 9.4
  #  "Fourth tier" - improvements: -0.12 meV and below
  #     hydro 5 d 11.6
  #     hydro 6 h 18
  #     hydro 4 p 4
  #     hydro 5 f 16
  #     hydro 4 s 3.9
  #
  #
  ################################################################################
  #
  #  FHI-aims code project
  # Volker Blum, Fritz Haber Institute Berlin, 2009
  #
  #  Suggested "tight" defaults for Pd atom (to be pasted into control.in file)
  #
  ################################################################################
    species        Pd
  #     global species definitions
      nucleus             46
      mass                106.42
  #
      l_hartree           6
  #
      cut_pot             4.0  2.0  1.0
      basis_dep_cutoff    1e-4
  #
      radial_base         62 7.0
      radial_multiplier   2
      angular_grids specified
        division   0.3627   50
        division   0.7349  110
        division   1.0624  194
        division   1.2496  302
        division   1.6740  434
  #      division   2.0126  590
  #      division   2.0830  770
  #      division   2.7936 1202
  #       outer_grid  974
        outer_grid  434
  ################################################################################
  #
  #  Definition of "minimal" basis
  #
  ################################################################################
  #     valence basis states
      valence      5  s   1.
      valence      4  p   6.
      valence      4  d   9.
  #     ion occupancy
      ion_occ     5  s   0.
      ion_occ     4  p   6.
      ion_occ     4  d   8.
  ################################################################################
  #
  #  Suggested additional basis functions. For production calculations,
  #  uncomment them one after another (the most important basis functions are
  #  listed first).
  #
  #  Constructed for dimers: 2.0 A, 2.275 A, 2.75 A, 3.75 A
  #
  ################################################################################
  #  "First tier" - max. impr. -120.76  meV, min. impr. -5.71 meV
       ionic 5 p auto
       hydro 4 f 8
       hydro 5 g 10
       hydro 3 s 2.6
       hydro 3 d 2.5
  #  "Second tier" - max. impr. -5.00  meV, min. impr. -0.62 meV
  #     hydro 5 f 17.2
  #     hydro 6 h 14
  #     hydro 4 d 4
  #     hydro 5 f 7.6
  #     hydro 3 p 3.3
  #     hydro 4 s 9.4
  #  "Third tier" - max. impr. -0.54  meV, min. impr. -0.14 meV
  #     hydro 4 f 20
  #     hydro 5 g 12.8
  #     hydro 5 d 9.8
  #     hydro 6 h 15.2
  #     hydro 5 s 10
  #     hydro 6 p 9.8
  #  "Fourth tier" - max. impr. -0.15  meV, min. impr. -0.05 meV
  #     hydro 5 f 9.2
  #     hydro 2 s 5.6
  #     hydro 5 f 43.2
  #     hydro 5 d 13.2
  #     hydro 5 g 14
  #     hydro 4 p 4.7
  
  -----------------------------------------------------------------------
  Completed first pass over input file control.in .
  -----------------------------------------------------------------------
  
  
  -----------------------------------------------------------------------
  Parsing geometry.in (first pass over file, find array dimensions only).
  The contents of geometry.in will be repeated verbatim below
  unless switched off by setting 'verbatim_writeout .false.' .
  in the first line of geometry.in .
  -----------------------------------------------------------------------
  
  #=======================================================
  # FHI-aims file: geometry.in
  # Created using the Atomic Simulation Environment (ASE)
  # Thu Apr  2 11:24:44 2020
  #=======================================================
  lattice_vector 5.7178690300000001 0.0000000000000000 0.0000000000000000
  lattice_vector 0.0000000000000000 5.8640909600000004 0.0000000000000000
  lattice_vector 0.0000000000000000 0.0000000000000000 101.4997797300000002
  atom_frac 0.7176552887920905 0.0000000000000000 0.5000000000198302 Se
  atom_frac 0.6088276439588195 0.6166330390618634 0.4926119064496296 Pd
  atom_frac 0.0000000000000000 0.4999999999999999 0.5000000000198302 Se
  atom_frac 0.1088276430843677 0.1166330390618633 0.4926119064496296 Pd
  atom_frac 0.2176552879176388 0.7332660781237268 0.4852238129779513 Se
  atom_frac 0.4999999991255482 0.2332660798290208 0.4852238129779513 Se
  symmetry_n_params 21 3 18
  symmetry_params a1 b2 c3 x0 x1 x2 x3 x4 x5 x6 x7 x8 x9 x10 x11 x12 x13 x14 x15 x16 x17
  symmetry_lv a1 , 0 , 0
  symmetry_lv 0 , b2 , 0
  symmetry_lv 0 , 0 , c3
  symmetry_frac x0 , x1 , x2
  symmetry_frac x3 , x4 , x5
  symmetry_frac x6 , x7 , x8
  symmetry_frac x9 , x10 , x11
  symmetry_frac x12 , x13 , x14
  symmetry_frac x15 , x16 , x17
  
  -----------------------------------------------------------------------
  Completed first pass over input file geometry.in .
  -----------------------------------------------------------------------
  

  Basic array size parameters:
  | Number of species                 :        2
  | Number of atoms                   :        6
  | Number of lattice vectors         :        3
  | Max. basis fn. angular momentum   :        4
  | Max. atomic/ionic basis occupied n:        5
  | Max. number of basis fn. types    :        3
  | Max. radial fns per species/type  :       10
  | Max. logarithmic grid size        :     1444
  | Max. radial integration grid size :      125
  | Max. angular integration grid size:      434
  | Max. angular grid division number :        8
  | Radial grid for Hartree potential :     1444
  | Number of spin channels           :        1

------------------------------------------------------------
          Reading file control.in.
------------------------------------------------------------
  XC: Using PBE gradient-corrected functionals.
  Using libMBD for calculating MBD and TS energies
  Spin treatment: No spin polarisation.
  Found k-point grid:        14        14         1
  Scalar relativistic treatment of kinetic energy: on-site free-atom approximation to ZORA.
  S.C.F. convergence parameters will be adjusted in iteration number     3 of each new s.c.f. cycle.
  Geometry relaxation: Modified BFGS - TRM (trust radius method) for lattice optimization.
  Convergence accuracy for geometry relaxation: Maximum force <   0.100000E-01 eV/A.
 
  Reading configuration options for species Se                  .
  | Found nuclear charge :  34.0000
  | Found atomic mass :    78.9600000000000      amu
  | Found l_max for Hartree potential  :   6
  | Found cutoff potl. onset [A], width [A], scale factor :    4.00000    2.00000    1.00000
  | Threshold for basis-dependent cutoff potential is   0.100000E-03
  | Found data for basic radial integration grid :    55 points, outermost radius =    7.000 A
  | Found multiplier for basic radial grid :   2
  | Found angular grid specification: user-specified.
  | Specified grid contains     5 separate shells.
  | Check grid settings after all constraints further below.
  | Found free-atom valence shell :  4 s   2.000
  | Found free-atom valence shell :  4 p   4.000
  | Found free-atom valence shell :  3 d  10.000
  | Found free-ion valence shell :  4 s   1.000
  | Found free-ion valence shell :  4 p   3.000
  | Found free-ion valence shell :  3 d  10.000
  | Found hydrogenic basis function :  3 d   4.300
  | Found hydrogenic basis function :  2 p   1.600
  | Found hydrogenic basis function :  4 f   7.200
  | Found ionic basis function :  4 s , default cutoff radius.
  Species Se                  : Missing cutoff potential type.
  Defaulting to exp(1/x)/(1-x)^2 type cutoff potential.
  Species Se: No 'logarithmic' tag. Using default grid for free atom:
  | Default logarithmic grid data [bohr] : 0.1000E-03 0.1000E+03 0.1012E+01
  | Will include ionic basis functions of  2.0-fold positive Se                   ion.
  Species Se: On-site basis accuracy parameter (for Gram-Schmidt orthonormalisation) not specified.
  Using default value basis_acc =  0.1000000E-03.
  Species Se                  : Using default innermost maximum threshold i_radial=  2 for radial functions.
  Species Se                  : Default cutoff onset for free atom density etc. : 0.40000000E+01 AA.
  Species Se                  : Basic radial grid will be enhanced according to radial_multiplier =   2, to contain   111 grid points.
 
  Reading configuration options for species Pd                  .
  | Found nuclear charge :  46.0000
  | Found atomic mass :    106.420000000000      amu
  | Found l_max for Hartree potential  :   6
  | Found cutoff potl. onset [A], width [A], scale factor :    4.00000    2.00000    1.00000
  | Threshold for basis-dependent cutoff potential is   0.100000E-03
  | Found data for basic radial integration grid :    62 points, outermost radius =    7.000 A
  | Found multiplier for basic radial grid :   2
  | Found angular grid specification: user-specified.
  | Specified grid contains     6 separate shells.
  | Check grid settings after all constraints further below.
  | Found free-atom valence shell :  5 s   1.000
  | Found free-atom valence shell :  4 p   6.000
  | Found free-atom valence shell :  4 d   9.000
  | Found free-ion valence shell :  5 s   0.000
  | Found free-ion valence shell :  4 p   6.000
  | Found free-ion valence shell :  4 d   8.000
  | Found ionic basis function :  5 p , default cutoff radius.
  | Found hydrogenic basis function :  4 f   8.000
  | Found hydrogenic basis function :  5 g  10.000
  | Found hydrogenic basis function :  3 s   2.600
  | Found hydrogenic basis function :  3 d   2.500
  Species Pd                  : Missing cutoff potential type.
  Defaulting to exp(1/x)/(1-x)^2 type cutoff potential.
  Species Pd: No 'logarithmic' tag. Using default grid for free atom:
  | Default logarithmic grid data [bohr] : 0.1000E-03 0.1000E+03 0.1012E+01
  | Will include ionic basis functions of  2.0-fold positive Pd                   ion.
  Species Pd: On-site basis accuracy parameter (for Gram-Schmidt orthonormalisation) not specified.
  Using default value basis_acc =  0.1000000E-03.
  Species Pd                  : Using default innermost maximum threshold i_radial=  2 for radial functions.
  Species Pd                  : Default cutoff onset for free atom density etc. : 0.40000000E+01 AA.
  Species Pd                  : Basic radial grid will be enhanced according to radial_multiplier =   2, to contain   125 grid points.
 
  Finished reading input file 'control.in'. Consistency checks are next.
 
  MPI_IN_PLACE appears to work with this MPI implementation.
  | Keeping use_mpi_in_place .true. (see manual).
  Target number of points in a grid batch is not set. Defaulting to  100
  Method for grid partitioning is not set. Defaulting to parallel hash+maxmin partitioning.
  Batch size limit is not set. Defaulting to    200
  By default, will store active basis functions for each batch.
  If in need of memory, prune_basis_once .false. can be used to disable this option.
  communication_type for Hartree potential was not specified.
  Defaulting to calc_hartree .
  Defaulting to Pulay charge density mixer.
  Pulay mixer: Number of relevant iterations not set.
  Defaulting to    8 iterations.
  Pulay mixer: Number of initial linear mixing iterations not set.
  Defaulting to    0 iterations.
  Work space size for distributed Hartree potential not set.
  Defaulting to   0.200000E+03 MB.
  Mixing parameter for charge density mixing has not been set.
  Using default: charge_mix_param =     0.0500.
  The mixing parameter will be adjusted in iteration number     3 of each s.c.f. cycle (i.e., each geometry step).
  Algorithm-dependent basis array size parameters:
  | n_max_pulay                         :        8
  Maximum number of self-consistency iterations not provided.
  Presetting  1000 iterations.
  Presetting      1001 iterations before the initial mixing cycle
  is restarted anyway using the sc_init_iter criterion / keyword.
  Presetting a factor      1.000 between actual scf density residual
  and density convergence criterion sc_accuracy_rho below which sc_init_iter
  takes no effect.
 * No s.c.f. convergence criteria (sc_accuracy_*) were provided in control.in.
 * The run will proceed with a reasonable default guess, but please check whether.
 * the s.c.f. cycles seem to take too much or too little time.
  No maximum number of relaxation steps, defaulting to     1000
  Default initial Hessian is Lindh matrix (thres = 15.00) plus  0.200000E+01 eV/A^2 times unity.
  No maximum energy tolerance for TRM/BFGS moves, defaulting to   0.100000E-02
  Maximum energy tolerance by which TRM/BFGS trajectory may increase over multiple steps:   0.300000E-02
  No harmonic length scale. Defaulting to   0.250000E-01 A.
  No trust radius initializer. Defaulting to   0.200000E+00 A.
  Unit cell relaxation: Unit cell will be relaxed fully.
  Unit cell relaxation: Analytical stress will be used.
  Analytical stress will be computed.
  Analytical stress calculation: Only the upper triangle is calculated.
                                 Final output is symmetrized.
  Analytical stress calculation: scf convergence accuracy of stress not set.
                                 Analytical stress self-consistency will not be checked explicitly.
                                 Be sure to set other criteria like sc_accuracy_rho tight enough.
 * Notice: The s.c.f. convergence criterion sc_accuracy_rho was not provided.
 * We used to stop in this case, and ask the user to provide reasonable
 * scf convergence criteria. However, this led some users to employ criteria
 * that led to extremely long run times, e.g., for simple relaxation.
 * We now preset a default value for sc_accuracy_rho if it is not set.
 * You may still wish to check if this setting is too tight or too loose for your needs.
 * Based on n_atoms, FHI-aims chose sc_accuracy_rho =  0.100000E-05 .
  Force calculation: scf convergence accuracy of forces not set.
  Defaulting to 'sc_accuracy_forces not_checked'.
  Handling of forces: Unphysical translation and rotation will be removed from forces.
  No accuracy limit for integral partition fn. given. Defaulting to  0.1000E-14.
  No threshold value for u(r) in integrations given. Defaulting to  0.1000E-05.
  No occupation type (smearing scheme) given. Defaulting to Gaussian broadening, width =  0.1000E-01 eV.
  The width will be adjusted in iteration number     3 of each s.c.f. cycle (i.e., each geometry step).
  S.C.F. convergence parameters will be adjusted in iteration number     3 of the first full s.c.f. cycle only.
  No accuracy for occupation numbers given. Defaulting to  0.1000E-12.
  No threshold value for occupation numbers given. Defaulting to  0.0000E+00.
  No accuracy for fermi level given. Defaulting to  0.1000E-19.
  Maximum # of iterations to find E_F not set. Defaulting to  200.
  Preferred method for the eigenvalue solver ('KS_method') not specified in 'control.in'.
  Defaulting to serial version, LAPACK (via ELSI), since more k-points than CPUs available.
  Will not use alltoall communication since running on < 1024 CPUs.
  Threshold for basis singularities not set.
  Default threshold for basis singularities:  0.1000E-04
  partition_type (choice of integration weights) for integrals was not specified.
  | Using a version of the partition function of Stratmann and coworkers ('stratmann_sparse').
  | At each grid point, the set of atoms used to build the partition table is smoothly restricted to
  | only those atoms whose free-atom density would be non-zero at that grid point.
  Partitioning for Hartree potential was not defined. Using partition_type for integrals.
  | Adjusted default value of keyword multip_moments_threshold to:       0.10000000E-11
  | This value may affect high angular momentum components of the Hartree potential in periodic systems.
  Angular momentum expansion for Kerker preconditioner not set explicitly.
  | Using default value of   0
  No explicit requirement for turning off preconditioner.
  | By default, it will be turned off when the charge convergence reaches
  | sc_accuracy_rho  =   0.100000E-05
  No special mixing parameter while Kerker preconditioner is on.
  Using default: charge_mix_param =     0.0500.
  No q(lm)/r^(l+1) cutoff set for long-range Hartree potential.
  | Using default value of  0.100000E-09 .
  | Verify using the multipole_threshold keyword.
  Defaulting to new monopole extrapolation.
  Density update method: automatic selection selected.
  Using density matrix based charge density update.
  Using density matrix based charge density update.
  Using packed matrix style: index .
  Geometry relaxation: A file "geometry.in.next_step" is written out by default after each step.
  | This file contains the geometry of the current relaxation step as well as
  | the current Hessian matrix needed to restart the relaxation algorithm.
  | If you do not want part or all of this information, use the keywords
  | "write_restart_geometry" or "hessian_to_restart_geometry" to switch the output off.
  Defaulting to use time-reversal symmetry for k-point grid.
  Charge integration errors on the 3D integration grid will be compensated
  by explicit normalization and distribution of residual charges.
  Use the "compensate_multipole_errors" flag to change this behaviour.
------------------------------------------------------------


------------------------------------------------------------
          Reading geometry description geometry.in.
------------------------------------------------------------
  Input structure read successfully.
  The structure contains        6 atoms,  and a total of        228.000 electrons.

  Input geometry:
  | Unit cell:
  |        5.71786903        0.00000000        0.00000000
  |        0.00000000        5.86409096        0.00000000
  |        0.00000000        0.00000000      101.49977973
  | Atomic structure:
  |       Atom                x [A]            y [A]            z [A]
  |    1: Species Se            4.10345895        0.00000000       50.74988987
  |    2: Species Pd            3.48119673        3.61599223       50.00000000
  |    3: Species Se            0.00000000        2.93204548       50.74988987
  |    4: Species Pd            0.62226221        0.68394675       50.00000000
  |    5: Species Se            1.24452443        4.29993898       49.25011014
  |    6: Species Se            2.85893451        1.36789351       49.25011014

  Lattice parameters for 3D lattice (in Angstroms) :     5.717869    5.864091  101.499780
  Angle(s) between unit vectors (in degrees)       :    90.000000   90.000000   90.000000

  | The smallest distance between any two atoms is         2.38103190 AA.
  | The first atom of this pair is atom number                      5 .
  | The second atom of this pair is atom number                     3 .
  | Wigner-Seitz cell of the first atom image           0     1    -1 .
  | (The Wigner-Seitz cell of the second atom is 0 0 0  by definition.)

  Symmetry information by spglib:
  | Precision set to  0.1E-04
  | Number of Operations  : 4
  | Space group           : 14
  | International         : P2_1/c
  | Schoenflies           : C2h^5

  Quantities derived from the lattice vectors:
  | Reciprocal lattice vector 1:  1.098868  0.000000  0.000000
  | Reciprocal lattice vector 2:  0.000000  1.071468  0.000000
  | Reciprocal lattice vector 3:  0.000000  0.000000  0.061903
  | Unit cell volume                               :   0.340330E+04  A^3

  Range separation radius for Ewald summation (hartree_convergence_parameter):      5.00000000 bohr.

  Fractional coordinates:
                         L1                L2                L3
       atom_frac         0.71765529        0.00000000        0.50000000  Se
       atom_frac         0.60882764        0.61663304        0.49261191  Pd
       atom_frac         0.00000000        0.50000000        0.50000000  Se
       atom_frac         0.10882764        0.11663304        0.49261191  Pd
       atom_frac         0.21765529        0.73326608        0.48522381  Se
       atom_frac         0.50000000        0.23326608        0.48522381  Se

  Number of empty states per atom not set in control.in - providing a guess from actual geometry.
  | Total number of empty states used during s.c.f. cycle:       33
  If you use a very high smearing, use empty_states (per atom!) in control.in to increase this value.

  Structure-dependent array size parameters: 
  | Maximum number of distinct radial functions  :       27
  | Maximum number of basis functions            :      234
  | Number of Kohn-Sham states (occupied + empty):      147
------------------------------------------------------------

------------------------------------------------------------
          Preparing all fixed parts of the calculation.
------------------------------------------------------------
  Determining machine precision:
    2.225073858507201E-308
  Setting up grids for atomic and cluster calculations.

  Creating wave function, potential, and density for free atoms.

  Species: Se

  List of occupied orbitals and eigenvalues:
    n    l              occ      energy [Ha]    energy [eV]
    1    0           2.0000      -466.337810    -12689.6975
    2    0           2.0000       -59.202598     -1610.9847
    3    0           2.0000        -7.847116      -213.5309
    4    0           2.0000        -0.634372       -17.2621
    2    1           6.0000       -52.061107     -1416.6548
    3    1           6.0000        -5.620941      -152.9536
    4    1           4.0000        -0.238469        -6.4891
    3    2          10.0000        -1.951949       -53.1152


  Species: Pd

  List of occupied orbitals and eigenvalues:
    n    l              occ      energy [Ha]    energy [eV]
    1    0           2.0000      -913.269104    -24851.3168
    2    0           2.0000      -130.434372     -3549.2998
    3    0           2.0000       -23.521804      -640.0609
    4    0           2.0000        -3.256918       -88.6253
    5    0           1.0000        -0.157260        -4.2793
    2    1           6.0000      -116.910756     -3181.3035
    3    1           6.0000       -19.103344      -519.8284
    4    1           6.0000        -1.998052       -54.3697
    3    2          10.0000       -12.098182      -329.2083
    4    2           9.0000        -0.243389        -6.6230

  Creating fixed part of basis set: Ionic, confined, hydrogenic.
 
  Se                   ion:

  List of free ionic orbitals and eigenvalues:
    n    l      energy [Ha]    energy [eV]
    1    0      -467.261007    -12714.8189
    2    0       -60.104893     -1635.5374
    3    0        -8.743714      -237.9286
    4    0        -1.414053       -38.4783
    2    1       -52.964156     -1441.2280
    3    1        -6.516916      -177.3343
    4    1        -0.961869       -26.1738
    3    2        -2.844511       -77.4031


  List of ionic basis orbitals and eigenvalues:
    n    l      energy [Ha]    energy [eV]    outer radius [A]
    4    0        -1.414046       -38.4782       4.083166

 
  Se                   hydrogenic:
 
  List of hydrogenic basis orbitals: 
    n    l      effective z      eigenvalue [eV]  inner max. [A]     outer max. [A]     outer radius [A]   
    3    2         4.300000       -27.9518           1.103845           1.103845           5.278265
    2    1         1.600000        -8.6828           1.326010           1.326010           5.475439
    4    3         7.200000       -44.0822           1.173422           1.173422           4.965294
 
 
  Pd                   ion:

  List of free ionic orbitals and eigenvalues:
    n    l      energy [Ha]    energy [eV]
    1    0      -914.099884    -24873.9234
    2    0      -131.248265     -3571.4470
    3    0       -24.332473      -662.1203
    4    0        -4.059276      -110.4585
    2    1      -117.724296     -3203.4411
    3    1       -19.913908      -541.8850
    4    1        -2.795328       -76.0648
    3    2       -12.908733      -351.2645
    4    2        -1.004248       -27.3270


  List of ionic basis orbitals and eigenvalues:
    n    l      energy [Ha]    energy [eV]    outer radius [A]
    5    1        -0.516938       -14.0666       5.427025

 
  Pd                   hydrogenic:
 
  List of hydrogenic basis orbitals: 
    n    l      effective z      eigenvalue [eV]  inner max. [A]     outer max. [A]     outer radius [A]   
    4    3         8.000000       -54.4226           1.054686           1.054686           4.629581
    5    4        10.000000       -54.4226           1.330451           1.330451           5.043202
    3    0         2.600000        -9.8948           0.150992           2.606197           5.493778
    3    2         2.500000        -9.3396           1.873517           1.873517           5.493778
 

  Adding cutoff potential to free-atom effective potential.
  Creating atomic-like basis functions for current effective potential.

  Species Se                  :

  List of atomic basis orbitals and eigenvalues:
    n    l      energy [Ha]    energy [eV]    outer radius [A]
    1    0      -466.337810    -12689.6975       0.309561
    2    0       -59.202598     -1610.9847       0.885812
    3    0        -7.847116      -213.5309       2.355489
    4    0        -0.634372       -17.2621       5.214131
    2    1       -52.061107     -1416.6548       0.907737
    3    1        -5.620941      -152.9536       2.694529
    4    1        -0.238469        -6.4891       5.408909
    3    2        -1.951949       -53.1152       4.083166


  Species Pd                  :

  List of atomic basis orbitals and eigenvalues:
    n    l      energy [Ha]    energy [eV]    outer radius [A]
    1    0      -913.269104    -24851.3168       0.223280
    2    0      -130.434372     -3549.2998       0.615909
    3    0       -23.521804      -640.0609       1.414312
    4    0        -3.256918       -88.6253       3.581357
    5    0        -0.157260        -4.2793       5.427025
    2    1      -116.910756     -3181.3035       0.631154
    3    1       -19.103344      -519.8284       1.540671
    4    1        -1.998052       -54.3697       4.408641
    3    2       -12.098182      -329.2083       1.806051
    4    2        -0.243389        -6.6230       5.361084

  Assembling full basis from fixed parts.
  | Species Se :   atomic orbital   1 s accepted.
  | Species Se :   atomic orbital   2 s accepted.
  | Species Se :   atomic orbital   3 s accepted.
  | Species Se :    ionic orbital   4 s accepted.
  | Species Se :   atomic orbital   4 s accepted.
  | Species Se :   atomic orbital   2 p accepted.
  | Species Se :   atomic orbital   3 p accepted.
  | Species Se :   atomic orbital   4 p accepted.
  | Species Se :    hydro orbital   2 p accepted.
  | Species Se :   atomic orbital   3 d accepted.
  | Species Se :    hydro orbital   3 d accepted.
  | Species Se :    hydro orbital   4 f accepted.
  | Species Pd :   atomic orbital   1 s accepted.
  | Species Pd :   atomic orbital   2 s accepted.
  | Species Pd :   atomic orbital   3 s accepted.
  | Species Pd :   atomic orbital   4 s accepted.
  | Species Pd :   atomic orbital   5 s accepted.
  | Species Pd :    hydro orbital   3 s accepted.
  | Species Pd :   atomic orbital   2 p accepted.
  | Species Pd :   atomic orbital   3 p accepted.
  | Species Pd :   atomic orbital   4 p accepted.
  | Species Pd :    ionic orbital   5 p accepted.
  | Species Pd :   atomic orbital   3 d accepted.
  | Species Pd :   atomic orbital   4 d accepted.
  | Species Pd :    hydro orbital   3 d accepted.
  | Species Pd :    hydro orbital   4 f accepted.
  | Species Pd :    hydro orbital   5 g accepted.
 
  Basis size parameters after reduction:
  | Total number of radial functions:       27
  | Total number of basis functions :      234
 
  Per-task memory consumption for arrays in subroutine allocate_ext:
  |           9.987968MB.
  Testing on-site integration grid accuracy.
  |  Species  Function  <phi|h_atom|phi> (log., in eV)  <phi|h_atom|phi> (rad., in eV)
           1        1             -12689.6974611609             -12689.6967666984
           1        2              -1610.9846578580              -1610.9846472470
           1        3               -213.5308789869               -213.5308777267
           1        4                -17.0464428502                -17.0464426496
           1        5                  6.7356859379                  6.7356842047
           1        6              -1416.6548010133              -1416.6548002108
           1        7               -152.9535734377               -152.9535727493
           1        8                 -6.4896265677                 -6.4896303794
           1        9                  5.2703037283                  5.2701679583
           1       10                -53.1152220964                -53.1152219035
           1       11                  7.6186674138                  7.6186665630
           1       12                 23.1072799052                 23.1072803137
           2       13             -24851.3167505682             -24851.3148165635
           2       14              -3549.2998457785              -3549.2998098031
           2       15               -640.0608571327               -640.0608534886
           2       16                -88.6252603132                -88.6252593318
           2       17                 -4.2849374516                 -4.2849400622
           2       18                  4.9432123540                  4.9432188418
           2       19              -3181.3035399559              -3181.3035364574
           2       20               -519.8284281886               -519.8284264063
           2       21                -54.3697495806                -54.3697489262
           2       22                  0.8628369484                  0.8628370486
           2       23               -329.2082917394               -329.2082912864
           2       24                 -6.6230267037                 -6.6230265077
           2       25                  5.4924295290                  5.4924115606
           2       26                 25.0740861941                 25.0740861175
           2       27                 38.8271273822                 38.8271278029

  Preparing densities etc. for the partition functions (integrals / Hartree potential).

  Preparations completed.
  max(cpu_time)          :      0.542 s.
  Wall clock time (cpu1) :      0.638 s.
------------------------------------------------------------

------------------------------------------------------------
          Begin self-consistency loop: Initialization.

          Date     :  20200402, Time     :  183356.142
------------------------------------------------------------

  Initializing index lists of integration centers etc. from given atomic structure:
  Mapping all atomic coordinates to central unit cell.

  Initializing the k-points
  Using symmetry for reducing the k-points
  | k-points reduced from:      196 to      100
  | Number of k-points                             :       100
  The eigenvectors in the calculations are COMPLEX.
  | K-points in task   0:         4
  | K-points in task   1:         5
  | K-points in task   2:         5
  | K-points in task   3:         5
  | K-points in task   4:         5
  | K-points in task   5:         4
  | K-points in task   6:         4
  | K-points in task   7:         4
  | K-points in task   8:         4
  | K-points in task   9:         4
  | K-points in task  10:         4
  | K-points in task  11:         4
  | K-points in task  12:         4
  | K-points in task  13:         4
  | K-points in task  14:         4
  | K-points in task  15:         4
  | K-points in task  16:         4
  | K-points in task  17:         4
  | K-points in task  18:         4
  | K-points in task  19:         4
  | K-points in task  20:         4
  | K-points in task  21:         4
  | K-points in task  22:         4
  | K-points in task  23:         4
  | Number of basis functions in the Hamiltonian integrals :      2704
  | Number of basis functions in a single unit cell        :       234
  | Number of centers in hartree potential         :       232
  | Number of centers in hartree multipole         :       128
  | Number of centers in electron density summation:       106
  | Number of centers in basis integrals           :       168
  | Number of centers in integrals                 :       105
  | Number of centers in hamiltonian               :       106
  | Consuming         51 KiB for k_phase.
  | Number of super-cells (origin) [n_cells]                     :         243
  | Number of super-cells (after PM_index) [n_cells]             :          33
  | Number of super-cells in hamiltonian [n_cells_in_hamiltonian]:          24
  | Size of matrix packed + index [n_hamiltonian_matrix_size] :      195465

  Initializing relaxation algorithms.
  | Estimated reciprocal-space cutoff momentum G_max:         1.90186217 bohr^-1 .
  | Reciprocal lattice points for long-range Hartree potential:    2748
  Partitioning the integration grid into batches with parallel hashing+maxmin method.
  | Number of batches:     2570
  | Maximal batch size:     193
  | Minimal batch size:      64
  | Average batch size:      74.735
  | Standard deviation of batch sizes:      16.820

  Integration load balanced across    24 MPI tasks.
  Work distribution over tasks is as follows:
  Task     0 has       8021 integration points.
  Task     1 has       8019 integration points.
  Task     2 has       7974 integration points.
  Task     3 has       7990 integration points.
  Task     4 has       8038 integration points.
  Task     5 has       7989 integration points.
  Task     6 has       8037 integration points.
  Task     7 has       8017 integration points.
  Task     8 has       7988 integration points.
  Task     9 has       8020 integration points.
  Task    10 has       7973 integration points.
  Task    11 has       7992 integration points.
  Task    12 has       7975 integration points.
  Task    13 has       8022 integration points.
  Task    14 has       7992 integration points.
  Task    15 has       8040 integration points.
  Task    16 has       7991 integration points.
  Task    17 has       7973 integration points.
  Task    18 has       7973 integration points.
  Task    19 has       7991 integration points.
  Task    20 has       8020 integration points.
  Task    21 has       7994 integration points.
  Task    22 has       8017 integration points.
  Task    23 has       8022 integration points.
  Initializing partition tables, free-atom densities, potentials, etc. across the integration grid (initialize_grid_storage).
  | initialize_grid_storage: Actual outermost partition radius vs. multipole_radius_free
  | (-- VB: in principle, multipole_radius_free should be larger, hence this output)
  | Species        1: Confinement radius =              6.000000000000000 AA, multipole_radius_free =              6.037996416842453 AA.
  | Species        1: outer_partition_radius set to              6.037996416842453 AA .
  | Species        2: Confinement radius =              6.000000000000000 AA, multipole_radius_free =              6.058219618167466 AA.
  | Species        2: outer_partition_radius set to              6.058219618167466 AA .
  | The sparse table of interatomic distances needs        146.26 kbyte instead of       225.79 kbyte of memory.
  | Net number of integration points:   192068
  | of which are non-zero points    :   170512
  | Numerical average free-atom electrostatic potential    :     -0.65060948 eV
  Renormalizing the initial density to the exact electron count on the 3D integration grid.
  | Initial density: Formal number of electrons (from input files) :     228.0000000000
  | Integrated number of electrons on 3D grid     :     227.9999975411
  | Charge integration error                      :      -0.0000024589
  | Normalization factor for density and gradient :       1.0000000108
  Renormalizing the free-atom superposition density to the exact electron count on the 3D integration grid.
  | Formal number of electrons (from input files) :     228.0000000000
  | Integrated number of electrons on 3D grid     :     227.9999975411
  | Charge integration error                      :      -0.0000024589
  | Normalization factor for density and gradient :       1.0000000108
  Obtaining max. number of non-zero basis functions in each batch (get_n_compute_maxes).
  | Maximal number of non-zero basis functions:      523 in task     0
  | Maximal number of non-zero basis functions:      549 in task     1
  | Maximal number of non-zero basis functions:      518 in task     2
  | Maximal number of non-zero basis functions:      507 in task     3
  | Maximal number of non-zero basis functions:      519 in task     4
  | Maximal number of non-zero basis functions:      521 in task     5
  | Maximal number of non-zero basis functions:      532 in task     6
  | Maximal number of non-zero basis functions:      523 in task     7
  | Maximal number of non-zero basis functions:      523 in task     8
  | Maximal number of non-zero basis functions:      532 in task     9
  | Maximal number of non-zero basis functions:      535 in task    10
  | Maximal number of non-zero basis functions:      524 in task    11
  | Maximal number of non-zero basis functions:      533 in task    12
  | Maximal number of non-zero basis functions:      525 in task    13
  | Maximal number of non-zero basis functions:      547 in task    14
  | Maximal number of non-zero basis functions:      530 in task    15
  | Maximal number of non-zero basis functions:      523 in task    16
  | Maximal number of non-zero basis functions:      520 in task    17
  | Maximal number of non-zero basis functions:      520 in task    18
  | Maximal number of non-zero basis functions:      516 in task    19
  | Maximal number of non-zero basis functions:      524 in task    20
  | Maximal number of non-zero basis functions:      539 in task    21
  | Maximal number of non-zero basis functions:      534 in task    22
  | Maximal number of non-zero basis functions:      522 in task    23
  Allocating        2.099 MB for KS_eigenvector_complex
  Integrating Hamiltonian matrix: batch-based integration.
  Time summed over all CPUs for integration: real work       10.207 s, elapsed       10.463 s
  Integrating overlap matrix.
  Time summed over all CPUs for integration: real work        6.572 s, elapsed        6.742 s
  Decreasing sparse matrix size:
  | Tolerance:  0.1000E-12
  Hamiltonian matrix
  | Array has   175024 nonzero elements out of   195465 elements
  | Sparsity factor is 0.105
  Overlap matrix
  | Array has   160301 nonzero elements out of   195465 elements
  | Sparsity factor is 0.180
  New size of hamiltonian matrix:      175211

  Updating Kohn-Sham eigenvalues and eigenvectors using ELSI and the (modified) LAPACK eigensolver.
  Singularity check in k-point 24, task 0 (analysis for other k-points/tasks may follow below):
  Overlap matrix is not singular
  | Lowest and highest eigenvalues :  0.1482E-02,  0.5212E+01
  Finished singularity check of overlap matrix
  | Time :     0.031 s
  Starting LAPACK eigensolver
  Finished Cholesky decomposition
  | Time :     0.020 s
  Finished transformation to standard eigenproblem
  | Time :     0.004 s
  Finished solving standard eigenproblem
  | Time :     0.013 s
  Finished back-transformation of eigenvectors
  | Time :     0.002 s

  Obtaining occupation numbers and chemical potential using ELSI.
  | Chemical potential (Fermi level):    -4.28812707 eV
  Writing Kohn-Sham eigenvalues.
  K-point:       1 at    0.000000    0.000000    0.000000 (in units of recip. lattice)

  State    Occupation    Eigenvalue [Ha]    Eigenvalue [eV]
      1       2.00000        -913.280129       -24851.61673
      2       2.00000        -913.280129       -24851.61673
      3       2.00000        -466.350867       -12690.05276
      4       2.00000        -466.350867       -12690.05276
      5       2.00000        -466.350867       -12690.05276
      6       2.00000        -466.350867       -12690.05276
      7       2.00000        -130.445717        -3549.60857
      8       2.00000        -130.445717        -3549.60857
      9       2.00000        -116.922129        -3181.61302
     10       2.00000        -116.922129        -3181.61302
     11       2.00000        -116.922120        -3181.61276
     12       2.00000        -116.922120        -3181.61276
     13       2.00000        -116.922052        -3181.61093
     14       2.00000        -116.922052        -3181.61093
     15       2.00000         -59.216085        -1611.35167
     16       2.00000         -59.216085        -1611.35167
     17       2.00000         -59.216085        -1611.35167
     18       2.00000         -59.216085        -1611.35167
     19       2.00000         -52.074607        -1417.02215
     20       2.00000         -52.074607        -1417.02214
     21       2.00000         -52.074607        -1417.02214
     22       2.00000         -52.074607        -1417.02214
     23       2.00000         -52.074579        -1417.02140
     24       2.00000         -52.074579        -1417.02140
     25       2.00000         -52.074579        -1417.02140
     26       2.00000         -52.074579        -1417.02140
     27       2.00000         -52.074518        -1417.01972
     28       2.00000         -52.074518        -1417.01972
     29       2.00000         -52.074518        -1417.01972
     30       2.00000         -52.074518        -1417.01972
     31       2.00000         -23.533945         -640.39124
     32       2.00000         -23.533945         -640.39124
     33       2.00000         -19.115791         -520.16714
     34       2.00000         -19.115791         -520.16714
     35       2.00000         -19.115694         -520.16449
     36       2.00000         -19.115694         -520.16449
     37       2.00000         -19.115028         -520.14638
     38       2.00000         -19.115028         -520.14638
     39       2.00000         -12.110606         -329.54637
     40       2.00000         -12.110606         -329.54637
     41       2.00000         -12.110567         -329.54528
     42       2.00000         -12.110567         -329.54528
     43       2.00000         -12.110138         -329.53362
     44       2.00000         -12.110138         -329.53362
     45       2.00000         -12.110075         -329.53192
     46       2.00000         -12.110075         -329.53192
     47       2.00000         -12.109966         -329.52894
     48       2.00000         -12.109966         -329.52894
     49       2.00000          -7.862436         -213.94777
     50       2.00000          -7.862436         -213.94777
     51       2.00000          -7.862429         -213.94757
     52       2.00000          -7.862429         -213.94757
     53       2.00000          -5.636924         -153.38851
     54       2.00000          -5.636924         -153.38851
     55       2.00000          -5.636923         -153.38848
     56       2.00000          -5.636923         -153.38848
     57       2.00000          -5.636658         -153.38128
     58       2.00000          -5.636658         -153.38128
     59       2.00000          -5.636578         -153.37909
     60       2.00000          -5.636578         -153.37909
     61       2.00000          -5.635805         -153.35807
     62       2.00000          -5.635805         -153.35806
     63       2.00000          -5.635801         -153.35796
     64       2.00000          -5.635801         -153.35796
     65       2.00000          -3.274861          -89.11349
     66       2.00000          -3.274858          -89.11341
     67       2.00000          -2.021909          -55.01896
     68       2.00000          -2.021858          -55.01756
     69       2.00000          -2.020791          -54.98853
     70       2.00000          -2.020728          -54.98680
     71       2.00000          -2.013046          -54.77776
     72       2.00000          -2.013040          -54.77760
     73       2.00000          -1.970143          -53.61032
     74       2.00000          -1.970112          -53.60947
     75       2.00000          -1.968978          -53.57862
     76       2.00000          -1.968959          -53.57810
     77       2.00000          -1.968495          -53.56546
     78       2.00000          -1.968476          -53.56496
     79       2.00000          -1.968331          -53.56102
     80       2.00000          -1.968327          -53.56089
     81       2.00000          -1.967971          -53.55122
     82       2.00000          -1.967941          -53.55039
     83       2.00000          -1.967873          -53.54855
     84       2.00000          -1.967839          -53.54763
     85       2.00000          -1.967819          -53.54707
     86       2.00000          -1.967791          -53.54632
     87       2.00000          -1.967765          -53.54560
     88       2.00000          -1.967762          -53.54554
     89       2.00000          -1.967184          -53.52979
     90       2.00000          -1.967167          -53.52935
     91       2.00000          -1.966810          -53.51962
     92       2.00000          -1.966806          -53.51951
     93       2.00000          -0.755503          -20.55829
     94       2.00000          -0.722716          -19.66610
     95       2.00000          -0.644024          -17.52478
     96       2.00000          -0.630122          -17.14648
     97       2.00000          -0.416518          -11.33403
     98       2.00000          -0.377764          -10.27947
     99       2.00000          -0.372639          -10.14002
    100       2.00000          -0.367053           -9.98801
    101       2.00000          -0.360007           -9.79628
    102       2.00000          -0.354729           -9.65267
    103       2.00000          -0.318109           -8.65619
    104       2.00000          -0.312668           -8.50813
    105       2.00000          -0.299586           -8.15216
    106       2.00000          -0.296233           -8.06090
    107       2.00000          -0.284333           -7.73709
    108       2.00000          -0.280372           -7.62931
    109       2.00000          -0.275553           -7.49817
    110       2.00000          -0.273187           -7.43381
    111       2.00000          -0.253145           -6.88843
    112       2.00000          -0.238933           -6.50169
    113       2.00000          -0.235415           -6.40595
    114       2.00000          -0.217611           -5.92150
    115       0.00000          -0.138275           -3.76265
    116       0.00000          -0.132462           -3.60447
    117       0.00000          -0.127559           -3.47104
    118       0.00000          -0.096795           -2.63393
    119       0.00000          -0.042394           -1.15359
    120       0.00000          -0.023386           -0.63635
    121       0.00000           0.004900            0.13333
    122       0.00000           0.031402            0.85450
    123       0.00000           0.097910            2.66426
    124       0.00000           0.114984            3.12888
    125       0.00000           0.121591            3.30866
    126       0.00000           0.125992            3.42843
    127       0.00000           0.140387            3.82013
    128       0.00000           0.164703            4.48180
    129       0.00000           0.172073            4.68234
    130       0.00000           0.175410            4.77314
    131       0.00000           0.199307            5.42343
    132       0.00000           0.221189            6.01885
    133       0.00000           0.231416            6.29715
    134       0.00000           0.234981            6.39416
    135       0.00000           0.239855            6.52680
    136       0.00000           0.244083            6.64185
    137       0.00000           0.272194            7.40679
    138       0.00000           0.314755            8.56492
    139       0.00000           0.327562            8.91342
    140       0.00000           0.337181            9.17516
    141       0.00000           0.345208            9.39358
    142       0.00000           0.364123            9.90829
    143       0.00000           0.372288           10.13048
    144       0.00000           0.373066           10.15165
    145       0.00000           0.396407           10.78678
    146       0.00000           0.417013           11.34750
    147       0.00000           0.423470           11.52320

  What follows are estimated values for band gap, HOMO, LUMO, etc.
  | They are estimated on a discrete k-point grid and not necessarily exact.
  | For converged numbers, create a DOS and/or band structure plot on a denser k-grid.

  Highest occupied state (VBM) at     -5.84040552 eV (relative to internal zero)
  | Occupation number:      2.00000000
  | K-point:      51 at    0.357143    0.000000    0.000000 (in units of recip. lattice)

  Lowest unoccupied state (CBM) at    -4.24550937 eV (relative to internal zero)
  | Occupation number:      0.00000000
  | K-point:      45 at    0.285714    0.428571    0.000000 (in units of recip. lattice)

  ESTIMATED overall HOMO-LUMO gap:      1.59489615 eV between HOMO at k-point 51 and LUMO at k-point 45
  | This appears to be an indirect band gap.
  | Smallest direct gap :      1.69502326 eV for k_point 51 at    0.285714    0.428571    0.000000 (in units of recip. lattice)
  The gap value is above 0.2 eV. Unless you are using a very sparse k-point grid,
  this system is most likely an insulator or a semiconductor.
  Calculating total energy contributions from superposition of free atom densities.

  Total energy components:
  | Sum of eigenvalues            :      -11928.75042963 Ha     -324597.81454533 eV
  | XC energy correction          :        -642.23944718 Ha      -17476.22453818 eV
  | XC potential correction       :         836.54182524 Ha       22763.46125693 eV
  | Free-atom electrostatic energy:       -8255.52072589 Ha     -224644.14871983 eV
  | Hartree energy correction     :           0.00000000 Ha           0.00000000 eV
  | vdW energy correction         :           0.00000000 Ha           0.00000000 eV
  | Entropy correction            :          -0.00000000 Ha          -0.00000000 eV
  | ---------------------------
  | Total energy                  :      -19989.96877746 Ha     -543954.72654640 eV
  | Total energy, T -> 0          :      -19989.96877746 Ha     -543954.72654640 eV  <-- do not rely on this value for anything but (periodic) metals
  | Electronic free energy        :      -19989.96877746 Ha     -543954.72654640 eV

  Derived energy quantities:
  | Kinetic energy                :       20573.61572296 Ha      559836.56799264 eV
  | Electrostatic energy          :      -39921.34505324 Ha    -1086315.07000087 eV
  | Energy correction for multipole
  | error in Hartree potential    :           0.00000000 Ha           0.00000000 eV
  | Sum of eigenvalues per atom                           :      -54099.63575756 eV
  | Total energy (T->0) per atom                          :      -90659.12109107 eV  <-- do not rely on this value for anything but (periodic) metals
  | Electronic free energy per atom                       :      -90659.12109107 eV
  Initialize hartree_potential_storage
  Max. number of atoms included in rho_multipole:            6

  End scf initialization - timings             :  max(cpu_time)    wall_clock(cpu1)
  | Time for scf. initialization               :        2.322 s           2.401 s
  | Boundary condition initialization          :        0.414 s           0.416 s
  | Relaxation initialization                  :        0.003 s           0.008 s
  | Integration                                :        0.726 s           0.730 s
  | Solution of K.-S. eqns.                    :        0.179 s           0.212 s
  | Grid partitioning                          :        0.781 s           0.781 s
  | Preloading free-atom quantities on grid    :        0.028 s           0.028 s
  | Free-atom superposition energy             :        0.027 s           0.027 s
  | Total energy evaluation                    :        0.001 s           0.001 s

  Partial memory accounting:
  | Current value for overall tracked memory usage:
  |   Minimum:        5.468 MB (on task  0)
  |   Maximum:        5.993 MB (on task  1)
  |   Average:        5.556 MB
  | Peak value for overall tracked memory usage:
  |   Minimum:       10.177 MB (on task 19 after allocating wave)
  |   Maximum:       11.117 MB (on task  1 after allocating wave)
  |   Average:       10.397 MB
  | Largest tracked array allocation so far:
  |   Minimum:        2.099 MB (KS_eigenvector_complex on task  0)
  |   Maximum:        3.121 MB (all_coords on task 23)
  |   Average:        2.259 MB
  Note:  These values currently only include a subset of arrays which are explicitly tracked.
  The "true" memory usage will be greater.
------------------------------------------------------------

------------------------------------------------------------
          Begin self-consistency iteration #    1

  Date     :  20200402, Time     :  183358.546
------------------------------------------------------------
  Evaluating new KS density using the density matrix
  Evaluating density matrix
  Time summed over all CPUs for getting density from density matrix: real work       16.519 s, elapsed       16.912 s
  Integration grid: deviation in total charge (<rho> - N_e) =   3.404921E-11
  Pulay mixing of updated and previous charge densities.
  Renormalizing the density to the exact electron count on the 3D integration grid.
  | Formal number of electrons (from input files) :     228.0000000000
  | Integrated number of electrons on 3D grid     :     227.9990981240
  | Charge integration error                      :      -0.0009018760
  | Normalization factor for density and gradient :       1.0000039556

  Evaluating partitioned Hartree potential by multipole expansion.
  | Original multipole sum: apparent total charge =   0.137135E-12
  | Sum of charges compensated after spline to logarithmic grids =   0.114757E-06
  | Analytical far-field extrapolation by fixed multipoles:
  | Hartree multipole sum: apparent total charge =   0.137138E-12
  Summing up the Hartree potential.
  Time summed over all CPUs for potential: real work        8.721 s, elapsed        8.853 s
  | RMS charge density error from multipole expansion :   0.256317E-03
  | Average real-space part of the electrostatic potential :      0.00002081 eV

  Integrating Hamiltonian matrix: batch-based integration.
  Time summed over all CPUs for integration: real work        9.979 s, elapsed       10.183 s

  Updating Kohn-Sham eigenvalues and eigenvectors using ELSI and the (modified) LAPACK eigensolver.
  Starting LAPACK eigensolver
  Finished Cholesky decomposition
  | Time :     0.002 s
  Finished transformation to standard eigenproblem
  | Time :     0.004 s
  Finished solving standard eigenproblem
  | Time :     0.013 s
  Finished back-transformation of eigenvectors
  | Time :     0.002 s

  Obtaining occupation numbers and chemical potential using ELSI.
  | Chemical potential (Fermi level):    -4.30139634 eV
  Writing Kohn-Sham eigenvalues.
  K-point:       1 at    0.000000    0.000000    0.000000 (in units of recip. lattice)

  State    Occupation    Eigenvalue [Ha]    Eigenvalue [eV]
      1       2.00000        -913.285347       -24851.75872
      2       2.00000        -913.285347       -24851.75872
      3       2.00000        -466.349312       -12690.01044
      4       2.00000        -466.349312       -12690.01044
      5       2.00000        -466.349312       -12690.01044
      6       2.00000        -466.349312       -12690.01044
      7       2.00000        -130.451186        -3549.75739
      8       2.00000        -130.451186        -3549.75739
      9       2.00000        -116.927734        -3181.76553
     10       2.00000        -116.927734        -3181.76553
     11       2.00000        -116.927714        -3181.76498
     12       2.00000        -116.927714        -3181.76498
     13       2.00000        -116.927306        -3181.75387
     14       2.00000        -116.927306        -3181.75387
     15       2.00000         -59.214792        -1611.31647
     16       2.00000         -59.214792        -1611.31647
     17       2.00000         -59.214792        -1611.31647
     18       2.00000         -59.214792        -1611.31647
     19       2.00000         -52.073338        -1416.98763
     20       2.00000         -52.073338        -1416.98763
     21       2.00000         -52.073338        -1416.98763
     22       2.00000         -52.073338        -1416.98763
     23       2.00000         -52.073260        -1416.98549
     24       2.00000         -52.073260        -1416.98549
     25       2.00000         -52.073260        -1416.98549
     26       2.00000         -52.073260        -1416.98549
     27       2.00000         -52.073134        -1416.98208
     28       2.00000         -52.073134        -1416.98208
     29       2.00000         -52.073134        -1416.98208
     30       2.00000         -52.073134        -1416.98207
     31       2.00000         -23.538553         -640.51661
     32       2.00000         -23.538553         -640.51661
     33       2.00000         -19.120645         -520.29921
     34       2.00000         -19.120645         -520.29921
     35       2.00000         -19.120536         -520.29626
     36       2.00000         -19.120536         -520.29626
     37       2.00000         -19.119164         -520.25892
     38       2.00000         -19.119164         -520.25892
     39       2.00000         -12.115735         -329.68594
     40       2.00000         -12.115735         -329.68594
     41       2.00000         -12.115530         -329.68036
     42       2.00000         -12.115530         -329.68036
     43       2.00000         -12.114681         -329.65723
     44       2.00000         -12.114681         -329.65723
     45       2.00000         -12.114611         -329.65533
     46       2.00000         -12.114611         -329.65533
     47       2.00000         -12.114374         -329.64888
     48       2.00000         -12.114374         -329.64888
     49       2.00000          -7.861339         -213.91791
     50       2.00000          -7.861339         -213.91791
     51       2.00000          -7.861331         -213.91771
     52       2.00000          -7.861331         -213.91771
     53       2.00000          -5.635880         -153.36011
     54       2.00000          -5.635880         -153.36011
     55       2.00000          -5.635811         -153.35822
     56       2.00000          -5.635811         -153.35821
     57       2.00000          -5.635676         -153.35454
     58       2.00000          -5.635676         -153.35454
     59       2.00000          -5.635659         -153.35409
     60       2.00000          -5.635659         -153.35409
     61       2.00000          -5.634528         -153.32330
     62       2.00000          -5.634528         -153.32330
     63       2.00000          -5.634527         -153.32328
     64       2.00000          -5.634527         -153.32328
     65       2.00000          -3.277795          -89.19333
     66       2.00000          -3.277792          -89.19326
     67       2.00000          -2.024973          -55.10233
     68       2.00000          -2.024929          -55.10111
     69       2.00000          -2.023808          -55.07062
     70       2.00000          -2.023752          -55.06910
     71       2.00000          -2.014725          -54.82345
     72       2.00000          -2.014719          -54.82329
     73       2.00000          -1.969237          -53.58565
     74       2.00000          -1.969206          -53.58483
     75       2.00000          -1.968019          -53.55253
     76       2.00000          -1.967998          -53.55196
     77       2.00000          -1.967399          -53.53565
     78       2.00000          -1.967378          -53.53508
     79       2.00000          -1.967267          -53.53206
     80       2.00000          -1.967257          -53.53178
     81       2.00000          -1.966738          -53.51765
     82       2.00000          -1.966721          -53.51721
     83       2.00000          -1.966717          -53.51708
     84       2.00000          -1.966690          -53.51635
     85       2.00000          -1.966614          -53.51429
     86       2.00000          -1.966568          -53.51304
     87       2.00000          -1.966499          -53.51116
     88       2.00000          -1.966497          -53.51111
     89       2.00000          -1.966112          -53.50063
     90       2.00000          -1.966090          -53.50003
     91       2.00000          -1.965769          -53.49129
     92       2.00000          -1.965768          -53.49126
     93       2.00000          -0.754692          -20.53620
     94       2.00000          -0.721932          -19.64476
     95       2.00000          -0.643077          -17.49902
     96       2.00000          -0.629133          -17.11957
     97       2.00000          -0.416474          -11.33284
     98       2.00000          -0.377982          -10.28541
     99       2.00000          -0.372403          -10.13361
    100       2.00000          -0.367393           -9.99728
    101       2.00000          -0.359210           -9.77460
    102       2.00000          -0.353787           -9.62702
    103       2.00000          -0.318304           -8.66150
    104       2.00000          -0.312692           -8.50879
    105       2.00000          -0.298724           -8.12870
    106       2.00000          -0.295265           -8.03458
    107       2.00000          -0.286014           -7.78282
    108       2.00000          -0.282161           -7.67800
    109       2.00000          -0.276695           -7.52924
    110       2.00000          -0.274332           -7.46494
    111       2.00000          -0.253874           -6.90826
    112       2.00000          -0.239548           -6.51845
    113       2.00000          -0.236207           -6.42753
    114       2.00000          -0.217789           -5.92634
    115       0.00000          -0.138908           -3.77989
    116       0.00000          -0.131837           -3.58746
    117       0.00000          -0.126930           -3.45393
    118       0.00000          -0.097069           -2.64137
    119       0.00000          -0.041972           -1.14213
    120       0.00000          -0.022823           -0.62104
    121       0.00000           0.005367            0.14603
    122       0.00000           0.032163            0.87520
    123       0.00000           0.098402            2.67766
    124       0.00000           0.115468            3.14204
    125       0.00000           0.122067            3.32160
    126       0.00000           0.126622            3.44557
    127       0.00000           0.140892            3.83386
    128       0.00000           0.165403            4.50085
    129       0.00000           0.172531            4.69481
    130       0.00000           0.175658            4.77990
    131       0.00000           0.200001            5.44229
    132       0.00000           0.221475            6.02663
    133       0.00000           0.232022            6.31363
    134       0.00000           0.235748            6.41502
    135       0.00000           0.240227            6.53691
    136       0.00000           0.244724            6.65929
    137       0.00000           0.272787            7.42290
    138       0.00000           0.315305            8.57988
    139       0.00000           0.328203            8.93086
    140       0.00000           0.337976            9.19680
    141       0.00000           0.345465            9.40058
    142       0.00000           0.364447            9.91711
    143       0.00000           0.372829           10.14519
    144       0.00000           0.373579           10.16561
    145       0.00000           0.396856           10.79901
    146       0.00000           0.417620           11.36403
    147       0.00000           0.423875           11.53422

  What follows are estimated values for band gap, HOMO, LUMO, etc.
  | They are estimated on a discrete k-point grid and not necessarily exact.
  | For converged numbers, create a DOS and/or band structure plot on a denser k-grid.

  Highest occupied state (VBM) at     -5.83246500 eV (relative to internal zero)
  | Occupation number:      2.00000000
  | K-point:      51 at    0.357143    0.000000    0.000000 (in units of recip. lattice)

  Lowest unoccupied state (CBM) at    -4.25877912 eV (relative to internal zero)
  | Occupation number:      0.00000000
  | K-point:      45 at    0.285714    0.428571    0.000000 (in units of recip. lattice)

  ESTIMATED overall HOMO-LUMO gap:      1.57368588 eV between HOMO at k-point 51 and LUMO at k-point 45
  | This appears to be an indirect band gap.
  | Smallest direct gap :      1.67974510 eV for k_point 51 at    0.285714    0.428571    0.000000 (in units of recip. lattice)
  The gap value is above 0.2 eV. Unless you are using a very sparse k-point grid,
  this system is most likely an insulator or a semiconductor.

  Total energy components:
  | Sum of eigenvalues            :      -11928.93794579 Ha     -324602.91711940 eV
  | XC energy correction          :        -642.22737617 Ha      -17475.89606926 eV
  | XC potential correction       :         836.52615981 Ha       22763.03497883 eV
  | Free-atom electrostatic energy:       -8255.52072589 Ha     -224644.14871983 eV
  | Hartree energy correction     :           0.19406060 Ha           5.28065756 eV
  | vdW energy correction         :           0.00000000 Ha           0.00000000 eV
  | Entropy correction            :          -0.00000000 Ha          -0.00000000 eV
  | ---------------------------
  | Total energy                  :      -19989.96582743 Ha     -543954.64627209 eV
  | Total energy, T -> 0          :      -19989.96582743 Ha     -543954.64627209 eV  <-- do not rely on this value for anything but (periodic) metals
  | Electronic free energy        :      -19989.96582743 Ha     -543954.64627209 eV

  Derived energy quantities:
  | Kinetic energy                :       20573.57162619 Ha      559835.36805847 eV
  | Electrostatic energy          :      -39921.31007745 Ha    -1086314.11826130 eV
  | Energy correction for multipole
  | error in Hartree potential    :          -0.00017781 Ha          -0.00483851 eV
  | Sum of eigenvalues per atom                           :      -54100.48618657 eV
  | Total energy (T->0) per atom                          :      -90659.10771201 eV  <-- do not rely on this value for anything but (periodic) metals
  | Electronic free energy per atom                       :      -90659.10771201 eV

  Self-consistency convergence accuracy:
  | Change of charge density      :  0.2708E+00
  | Change of sum of eigenvalues  : -0.5103E+01 eV
  | Change of total energy        :  0.8027E-01 eV

  End self-consistency iteration #     1       :  max(cpu_time)    wall_clock(cpu1)
  | Time for this iteration                    :        1.742 s           1.743 s
  | Charge density update                      :        0.726 s           0.726 s
  | Density mixing & preconditioning           :        0.077 s           0.077 s
  | Hartree multipole update                   :        0.003 s           0.003 s
  | Hartree multipole summation                :        0.389 s           0.390 s
  | Integration                                :        0.430 s           0.429 s
  | Solution of K.-S. eqns.                    :        0.116 s           0.116 s
  | Total energy evaluation                    :        0.000 s           0.001 s

  Partial memory accounting:
  | Current value for overall tracked memory usage:
  |   Minimum:        5.468 MB (on task  0)
  |   Maximum:        5.993 MB (on task  1)
  |   Average:        5.556 MB
  | Peak value for overall tracked memory usage:
  |   Minimum:       12.058 MB (on task 19 after allocating gradient_basis_wave)
  |   Maximum:       13.143 MB (on task  1 after allocating gradient_basis_wave)
  |   Average:       12.325 MB
  | Largest tracked array allocation so far:
  |   Minimum:        2.279 MB (gradient_basis_wave on task 19)
  |   Maximum:        3.121 MB (all_coords on task 23)
  |   Average:        2.412 MB
  Note:  These values currently only include a subset of arrays which are explicitly tracked.
  The "true" memory usage will be greater.
------------------------------------------------------------

------------------------------------------------------------
          Begin self-consistency iteration #    2

  Date     :  20200402, Time     :  183400.290
------------------------------------------------------------
  Evaluating new KS density using the density matrix
  Evaluating density matrix
  Time summed over all CPUs for getting density from density matrix: real work       16.463 s, elapsed       16.846 s
  Integration grid: deviation in total charge (<rho> - N_e) =   3.410605E-11
  Pulay mixing of updated and previous charge densities.
  Renormalizing the density to the exact electron count on the 3D integration grid.
  | Formal number of electrons (from input files) :     228.0000000000
  | Integrated number of electrons on 3D grid     :     227.9900644954
  | Charge integration error                      :      -0.0099355046
  | Normalization factor for density and gradient :       1.0000435787

  Evaluating partitioned Hartree potential by multipole expansion.
[...]
   Pulay + GGA                   : -0.142208E+01  0.161908E+01 -0.537666E+02
   Van der Waals                 :  0.109262E-01  0.585111E-02 -0.214338E-01
   ----------------------------------------------------------------
   Total forces(   3)            : -0.554350E-02  0.645045E-02  0.923450E-03
  atom #    4
   Hellmann-Feynman              :  0.325337E-01 -0.143015E-01  0.791410E-01
   Ionic forces                  :  0.000000E+00  0.000000E+00  0.000000E+00
   Multipole                     :  0.113734E-03  0.238048E-03  0.312836E-03
   Pulay + GGA                   : -0.301002E-01  0.110463E-01 -0.777012E-01
   Van der Waals                 :  0.116631E-06 -0.122967E-05  0.959809E-05
   ----------------------------------------------------------------
   Total forces(   4)            :  0.254737E-02 -0.301843E-02  0.176223E-02
  atom #    5
   Hellmann-Feynman              : -0.147156E+01  0.162928E+01 -0.538629E+02
   Ionic forces                  :  0.000000E+00  0.000000E+00  0.000000E+00
   Multipole                     :  0.326348E-01  0.194747E-02  0.643000E-01
   Pulay + GGA                   :  0.144868E+01 -0.162749E+01  0.537734E+02
   Van der Waals                 : -0.109402E-01 -0.582642E-02  0.214344E-01
   ----------------------------------------------------------------
   Total forces(   5)            : -0.118411E-02 -0.208480E-02 -0.373886E-02
  atom #    6
   Hellmann-Feynman              :  0.145803E+01  0.161002E+01 -0.538713E+02
   Ionic forces                  :  0.000000E+00  0.000000E+00  0.000000E+00
   Multipole                     : -0.326719E-01  0.193391E-02  0.642896E-01
   Pulay + GGA                   : -0.143892E+01 -0.161267E+01  0.537814E+02
   Van der Waals                 :  0.109383E-01 -0.585011E-02  0.214268E-01
   ----------------------------------------------------------------
   Total forces(   6)            : -0.262545E-02 -0.657073E-02 -0.418899E-02


  Analytical stress tensor components [eV]         xx                  yy                  zz                  xy                  xz                  yz
  -----------------------------------------------------------------------------------------------------------------------------------------------------------
    Nuclear Hellmann-Feynman      :    -0.3104779932E+02   -0.4794309349E+02   -0.6094434617E+02   -0.1896759576E-03    0.2836123972E-03    0.4717110416E+01
    Multipole Hellmann-Feynman    :    -0.1347191829E+03   -0.1611647264E+03   -0.9608285550E+02   -0.3746864122E-03    0.5173529936E-03    0.3329223027E+01
    On-site Multipole corrections :    -0.2376878621E+01   -0.2376851646E+01   -0.2376937339E+01    0.1119951943E-07   -0.5715382129E-08    0.1911166553E-05
    Strain deriv. of the orbitals :     0.1674819809E+03    0.2108491345E+03    0.1594393752E+03    0.5330891276E-03   -0.7048597507E-03   -0.8041155921E+01
    vdW correction   :     0.7021222795E+00    0.6899842604E+00    0.6574212856E-01    0.2015841216E-06    0.2599788331E-06   -0.1783581329E-01
  -----------------------------------------------------------------------------------------------------------------------------------------------------------
  Sum of all contributions        :     0.4024235113E-01    0.5444721653E-01    0.1009782987E+00   -0.3106045849E-04    0.9635990347E-04   -0.1265637976E-01

  +-------------------------------------------------------------------+
  |              Analytical stress tensor - Symmetrized               |
  |                  Cartesian components [eV/A**3]                   |
  +-------------------------------------------------------------------+
  |                x                y                z                |
  |                                                                   |
  |  x         0.00001183      -0.00000001       0.00000003           |
  |  y        -0.00000001       0.00001601      -0.00000372           |
  |  z         0.00000003      -0.00000372       0.00002970           |
  |                                                                   |
  |  Pressure:      -0.00001918   [eV/A**3]                           |
  |                                                                   |
  +-------------------------------------------------------------------+

 * Warning: Stress tensor is anisotropic. Be aware that pressure is an isotropic quantity.


  Leaving Libmbd.

  Timings for VdW correction (Tkatchenko-Scheffler 2009 or later):
  | CPU time:        1.280 s, Wall clock time:        1.281 s.
  Removing unitary transformations (pure translations, rotations) from forces on atoms.
  Atomic forces before filtering:
  | Net force on center of mass :  -0.172347E-04 -0.560477E-06  0.276882E-04 eV/A
  Atomic forces after filtering:
  | Net force on center of mass :   0.000000E+00  0.000000E+00  0.000000E+00 eV/A

  Energy and forces in a compact form:
  | Total energy uncorrected      :         -0.543954939581037E+06 eV
  | Total energy corrected        :         -0.543954939581037E+06 eV  <-- do not rely on this value for anything but (periodic) metals
  | Electronic free energy        :         -0.543954939581037E+06 eV
  Total atomic forces (unitary forces cleaned) [eV/Ang]:
  |    1          0.161704525649681E-02          0.198977006530942E-02          0.384996738091963E-03
  |    2          0.517715098651023E-02          0.323337013452334E-02          0.487564207725778E-02
  |    3         -0.554062559934327E-02          0.645053913380438E-02          0.918835530996777E-03
  |    4          0.255024255981268E-02         -0.301834138484157E-02          0.175761181832929E-02
  |    5         -0.118123808157659E-02         -0.208470597567525E-02         -0.374347937316482E-02
  |    6         -0.262257512189986E-02         -0.657063197312032E-02         -0.419360679151099E-02

  ------------------------------------ 
  Start decomposition of the XC Energy 
  ------------------------------------ 
  X and C from original XC functional choice 
  Hartree-Fock Energy :          0.000000000 Ha              0.000000000 eV
  X Energy            :       -630.542669709 Ha         -17157.939029113 eV
  C Energy            :        -11.580178726 Ha           -315.112695879 eV
  Total XC Energy     :       -642.122848435 Ha         -17473.051724992 eV
  ------------------------------------ 
  LDA X and C from self-consistent density 
  X Energy LDA        :       -598.701017858 Ha         -16291.483597473 eV
  C Energy LDA        :        -21.025185600 Ha           -572.124409559 eV
  ------------------------------------ 
  End decomposition of the XC Energy 
  ------------------------------------ 

------------------------------------------------------------
  Relaxation / MD: End force evaluation.       :  max(cpu_time)    wall_clock(cpu1)
  | Time for this force evaluation             :       40.431 s          40.504 s

------------------------------------------------------------
  Geometry optimization: Attempting to predict improved coordinates.

  +-------------------------------------------------------------------+
  | Generalized derivatives on lattice vectors [eV/A]                 |
  +-------------------------------------------------------------------+
  |lattice_vector       0.00706593      -0.00000545       0.00001692  |
  |lattice_vector      -0.00000527       0.00923995      -0.00214785  |
  |lattice_vector       0.00000095      -0.00012491       0.00099656  |
  +-------------------------------------------------------------------+
  | Forces on lattice vectors cleaned from atomic contributions [eV/A]|
  +-------------------------------------------------------------------+
  |lattice_vector      -0.00706593       0.00000545      -0.00001692  |
  |lattice_vector       0.00000527      -0.00923995       0.00214785  |
  |lattice_vector      -0.00000095       0.00012491      -0.00099656  |
  +-------------------------------------------------------------------+
  Symmetrized total atomic cartesian forces [eV/Ang]:
  |   1     0.1617045256E-02     0.1989770065E-02     0.3849967381E-03
  |   2     0.5177150987E-02     0.3233370135E-02     0.4875642077E-02
  |   3    -0.5540625599E-02     0.6450539134E-02     0.9188355310E-03
  |   4     0.2550242560E-02    -0.3018341385E-02     0.1757611818E-02
  |   5    -0.1181238082E-02    -0.2084705976E-02    -0.3743479373E-02
  |   6    -0.2622575122E-02    -0.6570631973E-02    -0.4193606792E-02
  +-------------------------------------------------------------------+
  | Symmetrized forces on lattice vectors cleaned from symmetrized
  | atomic contributions [eV/A]|
  +-------------------------------------------------------------------+
  |lattice_vector      -0.00706593       0.00000000       0.00000000  |
  |lattice_vector       0.00000000      -0.00923995       0.00000000  |
  |lattice_vector       0.00000000       0.00000000      -0.00099656  |
  +-------------------------------------------------------------------+
  Removing unitary transformations (pure translations, rotations) from forces on atoms.
  Atomic forces before filtering:
  | Net force on center of mass :   0.000000E+00  0.139380E-17  0.000000E+00 eV/A
  Atomic forces after filtering:
  | Net force on center of mass :   0.000000E+00  0.000000E+00  0.000000E+00 eV/A
  Net remaining forces (excluding translations, rotations) in present geometry:
  || Forces on atoms   || =   0.657063E-02 eV/A.
  || Forces on lattice || =   0.923995E-02 eV/A^3.
  Maximum force component is  0.923995E-02 eV/A.
  Present geometry is converged.

  Symmetry-reduced parameters:
  | atomic   1          0.716825381224726E+00
  | atomic   2         -0.269835229970786E-02
  | atomic   3          0.499856611648972E+00
  | atomic   4          0.608601557736495E+00
  | atomic   5          0.616399703731684E+00
  | atomic   6          0.492313994727038E+00
  | atomic   7          0.432291052627959E-03
  | atomic   8          0.497249211749582E+00
  | atomic   9          0.499855756689035E+00
  | atomic  10          0.108563454730362E+00
  | atomic  11          0.116445851671054E+00
  | atomic  12          0.492313579788789E+00
  | atomic  13          0.216879594279069E+00
  | atomic  14          0.735517271066503E+00
  | atomic  15          0.484781975699501E+00
  | atomic  16          0.500376658837774E+00
  | atomic  17          0.235569631313510E+00
  | atomic  18          0.484782781916349E+00
  | lattice  1          0.569526764107586E+01
  | lattice  2          0.589258988956366E+01
  | lattice  3          0.101326421864262E+03
  Symmetry-reduced forces:
  | atomic   1          0.920950552348149E-02
  | atomic   2          0.117248989693987E-01
  | atomic   3          0.390103419002709E-01
  | atomic   4          0.294852604864357E-01
  | atomic   5          0.190529241639093E-01
  | atomic   6          0.494031365979367E+00
  | atomic   7         -0.315553456872563E-01
  | atomic   8          0.380103816820904E-01
  | atomic   9          0.931023166376524E-01
  | atomic  10          0.145243139277956E-01
  | atomic  11         -0.177858479275690E-01
  | atomic  12          0.178092516577646E+00
  | atomic  13         -0.672746702240968E-02
  | atomic  14         -0.122843173549769E-01
  | atomic  15         -0.379313370205461E+00
  | atomic  16         -0.149362672280468E-01
  | atomic  17         -0.387180395328525E-01
  | atomic  18         -0.424923170889476E+00
  | lattice  1         -0.706592800579677E-02
  | lattice  2         -0.923994670410269E-02
  | lattice  3         -0.996564340122069E-03
------------------------------------------------------------
  Final atomic structure:
                         x [A]             y [A]             z [A]
  lattice_vector         5.69526764        0.00000000        0.00000000
  lattice_vector         0.00000000        5.89258989        0.00000000
  lattice_vector         0.00000000        0.00000000      101.32642186

            atom        -1.61275524       -0.01590028       50.64868190  Se
            atom        -2.22911888       -2.26039923       49.88441552  Pd
            atom         0.00246201        2.93008568       50.64859527  Se
            atom         0.61829793        0.68616765       49.88437348  Pd
            atom         1.23518734       -1.55848825       49.12122298  Se
            atom        -2.84548865        1.38811523       49.12130467  Se

  Fractional coordinates:
                         L1                L2                L3
       atom_frac        -0.28317462       -0.00269835        0.49985661  Se
       atom_frac        -0.39139844       -0.38360030        0.49231399  Pd
       atom_frac         0.00043229        0.49724921        0.49985576  Se
       atom_frac         0.10856345        0.11644585        0.49231358  Pd
       atom_frac         0.21687959       -0.26448273        0.48478198  Se
       atom_frac        -0.49962334        0.23556963        0.48478278  Se
------------------------------------------------------------

------------------------------------------------------------------------------
  Final output of selected total energy values:

  The following output summarizes some interesting total energy values
  at the end of a run (AFTER all relaxation, molecular dynamics, etc.).

  | Total energy of the DFT / Hartree-Fock s.c.f. calculation      :        -543954.939581037 eV
  | Final zero-broadening corrected energy (caution - metals only) :        -543954.939581037 eV
  | For reference only, the value of 1 Hartree used in FHI-aims is :             27.211384500 eV
  | For reference only, the overall average (free atom contribution
  | + realspace contribution) of the electrostatic potential after
  | s.c.f. convergence is                                          :             -0.649127355 eV

  Before relying on these values, please be sure to understand exactly which
  total energy value is referred to by a given number. Different objects may
  all carry the same name 'total energy'. Definitions:

  Total energy of the DFT / Hartree-Fock s.c.f. calculation:
  | Note that this energy does not include ANY quantities calculated after the
  | s.c.f. cycle, in particular not ANY RPA, MP2, etc. many-body perturbation terms.

  Final zero-broadening corrected energy:
  | For metallic systems only, a broadening of the occupation numbers at the Fermi
  | level can be extrapolated back to zero broadening by an electron-gas inspired
  | formula. For all systems that are not real metals, this value can be
  | meaningless and should be avoided.

------------------------------------------------------------------------------
  Methods described in the following list of references were used in this FHI-aims run.
  If you publish the results, please make sure to cite these reference if they apply.
  FHI-aims is an academic code, and for our developers (often, Ph.D. students
  and postdocs), scientific credit in the community is essential.
  Thank you for helping us!

  For any use of FHI-aims, please cite:

    Volker Blum, Ralf Gehrke, Felix Hanke, Paula Havu, Ville Havu,
    Xinguo Ren, Karsten Reuter, and Matthias Scheffler
    'Ab initio molecular simulations with numeric atom-centered orbitals'
    Computer Physics Communications 180, 2175-2196 (2009)
    http://dx.doi.org/10.1016/j.cpc.2009.06.022


  For the analytical stress tensor used in your run, please cite:

    Franz Knuth, Christian Carbogno, Viktor Atalla, Volker Blum, Matthias Scheffler
    'All-electron formalism for total energy strain derivatives and
    stress tensor components for numeric atom-centered orbitals'
    Computer Physics Communications 190, 33-50 (2015).
    http://dx.doi.org/10.1016/j.cpc.2015.01.003


  The provided symmetry information was generated with SPGlib:

    Atsushi Togo, Yusuke Seto, Dimitar Pashov
    SPGlib 1.7.3 obtained from http://spglib.sourceforge.net
    Copyright (C) 2008 Atsushi Togo


  The ELSI infrastructure was used in your run to solve the Kohn-Sham electronic structure.
  Please check out http://elsi-interchange.org to learn more.
  If scalability is important for your project, please acknowledge ELSI by citing:

    V. W-z. Yu, F. Corsetti, A. Garcia, W. P. Huhn, M. Jacquelin, W. Jia,
    B. Lange, L. Lin, J. Lu, W. Mi, A. Seifitokaldani, A. Vazquez-Mayagoitia,
    C. Yang, H. Yang, and V. Blum
    'ELSI: A unified software interface for Kohn-Sham electronic structure solvers'
    Computer Physics Communications 222, 267-285 (2018).
    http://dx.doi.org/10.1016/j.cpc.2017.09.007


  For the real-space grid partitioning and parallelization used in this calculation, please cite:

    Ville Havu, Volker Blum, Paula Havu, and Matthias Scheffler,
    'Efficient O(N) integration for all-electron electronic structure calculation'
    'using numerically tabulated basis functions'
    Journal of Computational Physics 228, 8367-8379 (2009).
    http://dx.doi.org/10.1016/j.jcp.2009.08.008

  Of course, there are many other important community references, e.g., those cited in the
  above references. Our list is limited to references that describe implementations in the
  FHI-aims code. The reason is purely practical (length of this list) - please credit others as well.

------------------------------------------------------------
          Leaving FHI-aims.
          Date     :  20200402, Time     :  184137.867

          Computational steps:
          | Number of self-consistency cycles          :          138
          | Number of SCF (re)initializations          :           10
          | Number of relaxation steps                 :            9

          Detailed time accounting                     :  max(cpu_time)    wall_clock(cpu1)
          | Total time                                 :      462.284 s         462.881 s
          | Preparation time                           :        0.542 s           0.638 s
          | Boundary condition initalization           :        4.108 s           4.105 s
          | Grid partitioning                          :        8.279 s           8.279 s
          | Preloading free-atom quantities on grid    :        1.407 s           1.408 s
          | Free-atom superposition energy             :        0.264 s           0.265 s
          | Total time for integrations                :       63.081 s          63.073 s
          | Total time for solution of K.-S. equations :       16.336 s          16.404 s
          | Total time for EV reorthonormalization     :        0.310 s           0.259 s
          | Total time for density & force components  :      250.123 s         250.138 s
          | Total time for mixing & preconditioning    :        9.548 s           9.569 s
          | Total time for Hartree multipole update    :        0.416 s           0.413 s
          | Total time for Hartree multipole sum       :       92.793 s          92.803 s
          | Total time for total energy evaluation     :        0.076 s           0.132 s
          | Total time for scaled ZORA corrections     :        0.000 s           0.000 s
          | Total time for vdW correction              :       13.013 s          13.023 s

          Partial memory accounting:
          | Residual value for overall tracked memory usage across tasks:     0.000000 MB (should be 0.000000 MB)
          | Peak values for overall tracked memory usage:
          |   Minimum:       24.812 MB (on task 19 after allocating d_wave)
          |   Maximum:       26.049 MB (on task  4 after allocating d_wave)
          |   Average:       25.273 MB
          | Largest tracked array allocation:
          |   Minimum:        4.559 MB (hessian_basis_wave on task 19)
          |   Maximum:        4.850 MB (hessian_basis_wave on task  1)
          |   Average:        4.666 MB
          Note:  These values currently only include a subset of arrays which are explicitly tracked.
          The "true" memory usage will be greater.

          Have a nice day.
------------------------------------------------------------
