------------------------------------------------------------
          Invoking FHI-aims ...

          When using FHI-aims, please cite the following reference:

          Volker Blum, Ralf Gehrke, Felix Hanke, Paula Havu,
          Ville Havu, Xinguo Ren, Karsten Reuter, and Matthias Scheffler,
          'Ab Initio Molecular Simulations with Numeric Atom-Centered Orbitals',
          Computer Physics Communications 180, 2175-2196 (2009)

          For any questions about FHI-aims, please visit the aimsclub website
          with its forums and wiki. Contributions to both the forums and the
          wiki are warmly encouraged - they are for you, and everyone is welcome there.

------------------------------------------------------------



  Date     :  20200420, Time     :  204038.788
  Time zero on CPU 1             :   0.125574000000000E+00  s.
  Internal wall clock time zero  :           356647238.788  s.

  FHI-aims created a unique identifier for this run for later identification
  aims_uuid : E6069000-8D51-40E3-A5C9-0324484B8A18

  Build configuration of the current instance of FHI-aims
  -------------------------------------------------------
  FHI-aims version      : 200112
  Commit number         : 23daeca3f
  CMake host system     : Linux-3.10.0-693.21.1.el7.x86_64
  CMake version         : 3.13.3
  Fortran compiler      : /sw/installed/impi/2018.4.274-iccifort-2019.1.144-GCC-8.2.0-2.31.1/bin64/mpiifort (Intel) version 19.0.0.20181018
  Fortran compiler flags: -O3 -ip -fp-model precise
  C compiler            : /sw/installed/impi/2018.4.274-iccifort-2019.1.144-GCC-8.2.0-2.31.1/bin64/mpiicc (Intel) version 19.0.0.20181018
  C compiler flags      : -O3 -ip -fp-model precise
  Architecture          :
  Using MPI
  Using Scalapack
  Using C files
  Using LibXC
  Using SPGlib
  Using i-PI
  Using RLSY
  Linking against: /sw/installed/imkl/2019.1.144-iimpi-2019a/mkl/lib/intel64/libmkl_intel_lp64.so
                   /sw/installed/imkl/2019.1.144-iimpi-2019a/mkl/lib/intel64/libmkl_sequential.so
                   /sw/installed/imkl/2019.1.144-iimpi-2019a/mkl/lib/intel64/libmkl_core.so
                   /sw/installed/imkl/2019.1.144-iimpi-2019a/mkl/lib/intel64/libmkl_blacs_intelmpi_lp64.so
                   /sw/installed/imkl/2019.1.144-iimpi-2019a/mkl/lib/intel64/libmkl_scalapack_lp64.so

  Using       24 parallel tasks.
  Task        0 on host taurusi6593.taurus.hrsk.tu-dresden.de reporting.
  Task        1 on host taurusi6593.taurus.hrsk.tu-dresden.de reporting.
  Task        2 on host taurusi6593.taurus.hrsk.tu-dresden.de reporting.
  Task        3 on host taurusi6593.taurus.hrsk.tu-dresden.de reporting.
  Task        4 on host taurusi6593.taurus.hrsk.tu-dresden.de reporting.
  Task        5 on host taurusi6593.taurus.hrsk.tu-dresden.de reporting.
  Task        6 on host taurusi6593.taurus.hrsk.tu-dresden.de reporting.
  Task        7 on host taurusi6593.taurus.hrsk.tu-dresden.de reporting.
  Task        8 on host taurusi6593.taurus.hrsk.tu-dresden.de reporting.
  Task        9 on host taurusi6593.taurus.hrsk.tu-dresden.de reporting.
  Task       10 on host taurusi6593.taurus.hrsk.tu-dresden.de reporting.
  Task       11 on host taurusi6593.taurus.hrsk.tu-dresden.de reporting.
  Task       12 on host taurusi6593.taurus.hrsk.tu-dresden.de reporting.
  Task       13 on host taurusi6593.taurus.hrsk.tu-dresden.de reporting.
  Task       14 on host taurusi6593.taurus.hrsk.tu-dresden.de reporting.
  Task       15 on host taurusi6593.taurus.hrsk.tu-dresden.de reporting.
  Task       16 on host taurusi6593.taurus.hrsk.tu-dresden.de reporting.
  Task       17 on host taurusi6593.taurus.hrsk.tu-dresden.de reporting.
  Task       18 on host taurusi6593.taurus.hrsk.tu-dresden.de reporting.
  Task       19 on host taurusi6593.taurus.hrsk.tu-dresden.de reporting.
  Task       20 on host taurusi6593.taurus.hrsk.tu-dresden.de reporting.
  Task       21 on host taurusi6593.taurus.hrsk.tu-dresden.de reporting.
  Task       22 on host taurusi6593.taurus.hrsk.tu-dresden.de reporting.
  Task       23 on host taurusi6593.taurus.hrsk.tu-dresden.de reporting.

  Performing system and environment tests:
  | Environment variable OMP_NUM_THREADS correctly set to 1.
  | Maximum stacksize for task 0: unlimited
  | Maximum stacksize for task 1: unlimited
  | Maximum stacksize for task 2: unlimited
  | Maximum stacksize for task 3: unlimited
  | Maximum stacksize for task 4: unlimited
  | Maximum stacksize for task 5: unlimited
  | Maximum stacksize for task 6: unlimited
  | Maximum stacksize for task 7: unlimited
  | Maximum stacksize for task 8: unlimited
  | Maximum stacksize for task 9: unlimited
  | Maximum stacksize for task 10: unlimited
  | Maximum stacksize for task 11: unlimited
  | Maximum stacksize for task 12: unlimited
  | Maximum stacksize for task 13: unlimited
  | Maximum stacksize for task 14: unlimited
  | Maximum stacksize for task 15: unlimited
  | Maximum stacksize for task 16: unlimited
  | Maximum stacksize for task 17: unlimited
  | Maximum stacksize for task 18: unlimited
  | Maximum stacksize for task 19: unlimited
  | Maximum stacksize for task 20: unlimited
  | Maximum stacksize for task 21: unlimited
  | Maximum stacksize for task 22: unlimited
  | Maximum stacksize for task 23: unlimited
  | Current stacksize for task 0: unlimited
  | Current stacksize for task 1: unlimited
  | Current stacksize for task 2: unlimited
  | Current stacksize for task 3: unlimited
  | Current stacksize for task 4: unlimited
  | Current stacksize for task 5: unlimited
  | Current stacksize for task 6: unlimited
  | Current stacksize for task 7: unlimited
  | Current stacksize for task 8: unlimited
  | Current stacksize for task 9: unlimited
  | Current stacksize for task 10: unlimited
  | Current stacksize for task 11: unlimited
  | Current stacksize for task 12: unlimited
  | Current stacksize for task 13: unlimited
  | Current stacksize for task 14: unlimited
  | Current stacksize for task 15: unlimited
  | Current stacksize for task 16: unlimited
  | Current stacksize for task 17: unlimited
  | Current stacksize for task 18: unlimited
  | Current stacksize for task 19: unlimited
  | Current stacksize for task 20: unlimited
  | Current stacksize for task 21: unlimited
  | Current stacksize for task 22: unlimited
  | Current stacksize for task 23: unlimited
  | Checking for scalapack...
  | Testing pdtran()...
  | All pdtran() tests passed.

  Obtaining array dimensions for all initial allocations:
  
  -----------------------------------------------------------------------
  Parsing control.in (first pass over file, find array dimensions only).
  The contents of control.in will be repeated verbatim below
  unless switched off by setting 'verbatim_writeout .false.' .
  in the first line of control.in .
  -----------------------------------------------------------------------
  
  #===============================================================================
  # FHI-aims file: ./control.in
  # Created using the Atomic Simulation Environment (ASE)
  # Thu Apr  2 11:27:09 2020
  #===============================================================================
  xc                                 pbe
  # include_spin_orbit
  # vdw_correction_hirshfeld
  many_body_dispersion
  spin                               none
  k_grid 	 	 9 9 8
  relativistic                       atomic_zora scalar
  energy_tolerance 1e-2
  harmonic_length_scale  0.015
  ### SCF settings
  adjust_scf 	 always 	 3
  # frozen_core_scf 	 .true.
  # charge_mix_param  0.05
  # occupation_type 	 gaussian 	 0.01
  # sc_accuracy_eev   1E-3 	 	 # sum of eigenvalues convergence
  # sc_accuracy_etot  1E-6 	 	 # total energy convergence
  # sc_accuracy_rho   1E-3 	 	 # electron density convergence
  # elsi_restart 	 read_and_write 	 1000
  ### geometry optimisation section
  relax_geometry 	 bfgs 	 1E-2
  relax_unit_cell 	 full
  #===============================================================================
  
  ################################################################################
  #
  #  FHI-aims code project
  # Volker Blum, Fritz Haber Institute Berlin, 2009
  #
  #  Suggested "tight" defaults for Pd atom (to be pasted into control.in file)
  #
  ################################################################################
    species        Pd
  #     global species definitions
      nucleus             46
      mass                106.42
  #
      l_hartree           6
  #
      cut_pot             4.0  2.0  1.0
      basis_dep_cutoff    1e-4
  #
      radial_base         62 7.0
      radial_multiplier   2
      angular_grids specified
        division   0.3627   50
        division   0.7349  110
        division   1.0624  194
        division   1.2496  302
        division   1.6740  434
  #      division   2.0126  590
  #      division   2.0830  770
  #      division   2.7936 1202
  #       outer_grid  974
        outer_grid  434
  ################################################################################
  #
  #  Definition of "minimal" basis
  #
  ################################################################################
  #     valence basis states
      valence      5  s   1.
      valence      4  p   6.
      valence      4  d   9.
  #     ion occupancy
      ion_occ     5  s   0.
      ion_occ     4  p   6.
      ion_occ     4  d   8.
  ################################################################################
  #
  #  Suggested additional basis functions. For production calculations,
  #  uncomment them one after another (the most important basis functions are
  #  listed first).
  #
  #  Constructed for dimers: 2.0 A, 2.275 A, 2.75 A, 3.75 A
  #
  ################################################################################
  #  "First tier" - max. impr. -120.76  meV, min. impr. -5.71 meV
       ionic 5 p auto
       hydro 4 f 8
       hydro 5 g 10
       hydro 3 s 2.6
       hydro 3 d 2.5
  #  "Second tier" - max. impr. -5.00  meV, min. impr. -0.62 meV
  #     hydro 5 f 17.2
  #     hydro 6 h 14
  #     hydro 4 d 4
  #     hydro 5 f 7.6
  #     hydro 3 p 3.3
  #     hydro 4 s 9.4
  #  "Third tier" - max. impr. -0.54  meV, min. impr. -0.14 meV
  #     hydro 4 f 20
  #     hydro 5 g 12.8
  #     hydro 5 d 9.8
  #     hydro 6 h 15.2
  #     hydro 5 s 10
  #     hydro 6 p 9.8
  #  "Fourth tier" - max. impr. -0.15  meV, min. impr. -0.05 meV
  #     hydro 5 f 9.2
  #     hydro 2 s 5.6
  #     hydro 5 f 43.2
  #     hydro 5 d 13.2
  #     hydro 5 g 14
  #     hydro 4 p 4.7
  ################################################################################
  #
  #  FHI-aims code project
  # Volker Blum, Fritz Haber Institute Berlin, 2009
  #
  #  Suggested "tight" defaults for Se atom (to be pasted into control.in file)
  #
  ################################################################################
    species        Se
  #     global species definitions
      nucleus             34
      mass                78.96
  #
      l_hartree           6
  #
      cut_pot             4.0          2.0  1.0
      basis_dep_cutoff    1e-4
  #
      radial_base         55 7.0
      radial_multiplier   2
      angular_grids       specified
        division   0.0830  110
        division   0.1357  194
        division   0.7377  302
        division   0.8610  434
  #      division   0.9640  590
  #      division   1.0773  770
  #      division   2.5539  974
  #      outer_grid  974
        outer_grid  434
  ################################################################################
  #
  #  Definition of "minimal" basis
  #
  ################################################################################
  #     valence basis states
      valence      4  s   2.
      valence      4  p   4.
      valence      3  d  10.
  #     ion occupancy
      ion_occ      4  s   1.
      ion_occ      4  p   3.
      ion_occ      3  d  10.
  ################################################################################
  #
  #  Suggested additional basis functions. For production calculations,
  #  uncomment them one after another (the most important basis functions are
  #  listed first).
  #
  #  Constructed for dimers: 1.85 A, 2.15 A, 2.50 A, 3.00 A, 4.00 A
  #
  ################################################################################
  #  "First tier" - improvements: -336.21 meV to -36.85 meV
       hydro 3 d 4.3
       hydro 2 p 1.6
       hydro 4 f 7.2
       ionic 4 s auto
  #  "Second tier" - improvements: -14.39 meV to -1.49 meV
  #     hydro 5 g 10.4
  #     hydro 4 p 4.5
  #     hydro 4 d 6.2
  #     hydro 4 f 11.2
  #     hydro 1 s 0.65
  #     hydro 6 h 15.2
  #  "Third tier" - improvements: -0.46 meV and below
  #     hydro 5 g 14.4
  #     ionic 4 d auto
  #     hydro 4 f 22.4
  #     hydro 5 f 7.4
  #     hydro 5 p 8
  #     hydro 5 s 9.4
  #  "Fourth tier" - improvements: -0.12 meV and below
  #     hydro 5 d 11.6
  #     hydro 6 h 18
  #     hydro 4 p 4
  #     hydro 5 f 16
  #     hydro 4 s 3.9
  #
  #
  
  -----------------------------------------------------------------------
  Completed first pass over input file control.in .
  -----------------------------------------------------------------------
  
  
  -----------------------------------------------------------------------
  Parsing geometry.in (first pass over file, find array dimensions only).
  The contents of geometry.in will be repeated verbatim below
  unless switched off by setting 'verbatim_writeout .false.' .
  in the first line of geometry.in .
  -----------------------------------------------------------------------
  
  #
  # This is the geometry file that corresponds to the current relaxation step.
  # If you do not want this file to be written, set the "write_restart_geometry" flag to .false.
  #  aims_uuid : 35A60991-190E-40E4-AD90-B63243EA4A5F
  #
  lattice_vector      5.85270387      0.00000000      0.00000000
  lattice_vector      0.00000000      5.95778788      0.00000000
  lattice_vector      0.00000000      0.00000000      7.44091280
  atom_frac       0.50132007      0.00132710      0.00140033 Pd
  atom_frac       0.00135335      0.00135698      0.50123163 Pd
  atom_frac       0.00129928      0.50127087      0.00136089 Pd
  atom_frac       0.50128512      0.50129123      0.50127247 Pd
  atom_frac       0.61304981      0.11921485      0.40330117 Se
  atom_frac       0.88956897      0.88337023      0.90333281 Se
  atom_frac       0.11310359      0.38342466      0.59928781 Se
  atom_frac       0.38957444      0.61919598      0.09933844 Se
  atom_frac       0.38954850      0.88336357      0.59927174 Se
  atom_frac       0.11307438      0.11922518      0.09932124 Se
  atom_frac       0.88952211      0.61923111      0.40330483 Se
  atom_frac       0.61302786      0.38345571      0.90330412 Se
  #
  # What follows is the current estimated Hessian matrix constructed by the BFGS algorithm.
  # This is NOT the true Hessian matrix of the system.
  # If you do not want this information here, switch it off using the "hessian_to_restart_geometry" keyword.
  #
  trust_radius             0.0244234786
  hessian_block                1       1           5.909688           0.109803          -2.169153           0.109803           6.31675
  hessian_block                1       2           0.049685           0.444812           0.029080           0.508047           0.23767
  hessian_block                1       3           0.106258           0.544195           0.054088          -0.114388          -0.18523
  hessian_block                1       4           0.534423           0.302410          -0.029881           0.194040          -0.41466
  hessian_block                1       5          -0.128827          -0.540798          -0.257307          -0.399599           0.10866
  hessian_block                1       6          -1.811413           0.152758           0.697129           0.356845          -0.25785
  hessian_block                1       7          -0.372786           0.245682           0.226465           0.174070           0.41682
  hessian_block                1       8          -0.268387          -0.619684           0.304186          -0.462380          -1.88047
  hessian_block                1       9          -0.122842           0.054379           0.215382          -0.437569          -0.24557
  hessian_block                1      10          -2.250606           0.684034           0.965824           0.194683          -0.47851
  hessian_block                1      11           0.044055          -0.508920          -0.189177          -0.034933          -0.09720
  hessian_block                1      12          -0.123333          -0.868672           0.153364          -0.088620          -1.87337
  hessian_block                2       2           6.101407           0.072698           2.172572           0.072698           6.67941
  hessian_block                2       3           0.820113           0.396561           0.143702          -0.440683          -0.18220
  hessian_block                2       4           0.263794           0.589794           0.112621          -0.727199           0.39210
  hessian_block                2       5          -2.171530           0.319425          -0.760067           0.505652          -0.47581
  hessian_block                2       6          -0.454509          -0.194356          -0.027602          -0.000697          -0.72859
  hessian_block                2       7           0.064961          -0.700246          -0.333676          -0.245416          -1.86936
  hessian_block                2       8          -0.253394          -0.360709          -0.157561           0.337188          -0.12883
  hessian_block                2       9          -2.014234           0.335134          -1.008090           0.777952          -0.82096
  hessian_block                2      10           0.406686          -0.242480           0.018360          -0.078185           0.37476
  hessian_block                2      11          -0.684737          -0.609558          -0.185731          -0.385123          -2.26880
  hessian_block                2      12          -0.562331          -0.114310          -0.053889          -0.260999           0.43765
  hessian_block                3       3           6.335403          -0.405526           2.333091          -0.405526           6.21194
  hessian_block                3       4           0.367057          -0.233014          -0.004038          -0.583612           0.37268
  hessian_block                3       5          -0.530786           0.081591          -0.317267          -0.071011           0.22706
  hessian_block                3       6          -0.760573           0.603343          -0.467674           0.231087          -1.86380
  hessian_block                3       7           0.165965          -0.004457           0.229600           0.239756          -0.01966
  hessian_block                3       8          -2.089933          -0.302561          -0.824800          -0.387119          -0.55183
  hessian_block                3       9          -0.291330           0.368921           0.144323           0.070435          -0.17106
  hessian_block                3      10           0.358657           0.460437           0.074843           0.673254          -1.91915
  hessian_block                3      11          -0.535633           0.232995          -0.219965          -0.056001          -0.22022
  hessian_block                3      12          -2.379288          -0.246656          -1.024673          -0.652021          -0.05146
  hessian_block                4       4           5.942121           0.079791          -2.005741           0.079791           6.94622
  hessian_block                4       5          -0.490856           0.937495           0.390593           0.212298          -2.08479
  hessian_block                4       6          -0.171478           0.266933           0.067571          -0.261647          -0.56405
  hessian_block                4       7          -1.933243          -0.964656           0.658453          -0.219759          -0.60064
  hessian_block                4       8          -0.250738          -0.008740          -0.081709           0.078905          -0.50130
  hessian_block                4       9          -0.280475           0.596464           0.112049           0.045564          -2.41849
  hessian_block                4      10          -0.359479          -0.397558          -0.161018          -0.235928           0.62778
  hessian_block                4      11          -1.933393           0.090176           0.967787          -0.705569          -0.59612
  hessian_block                4      12          -0.121824           0.516864           0.090089           0.347155           0.48832
  hessian_block                5       5           5.386764          -0.605411          -1.255185          -0.605411           5.84093
  hessian_block                5       6           0.372052          -0.009066          -0.301546           0.009970          -0.03656
  hessian_block                5       7          -0.547881           0.954728           0.015510          -0.987690           0.50245
  hessian_block                5       8           0.060824           0.013551           0.396347           0.255576          -0.17890
  hessian_block                5       9          -1.358266          -0.331352           1.749130          -0.393415          -1.53371
  hessian_block                5      10          -0.138093           0.338168           0.336316           0.379689           0.19572
  hessian_block                5      11           0.753864          -0.741470           0.044212           0.717655          -0.59632
  hessian_block                5      12           0.358644           0.133513          -0.453331          -0.174088          -0.32168
  hessian_block                6       6           5.270623           0.195227           1.570927           0.195227           5.82308
  hessian_block                6       7           0.157389           0.047399           0.098995           0.116675           0.32899
  hessian_block                6       8           0.052958           0.378503           0.129251           0.229082           0.28693
  hessian_block                6       9           0.059738           0.170625           0.102989          -0.013610           0.65993
  hessian_block                6      10          -1.650840          -1.157618          -2.646720          -1.073738          -2.06653
  hessian_block                6      11           0.033178           0.026696          -0.408423          -0.170673           0.35662
  hessian_block                6      12           0.468785           0.003611           0.064431          -0.102580          -0.29113
  hessian_block                7       7           5.419039           0.811524           1.025325           0.811524           6.01168
  hessian_block                7       8          -0.119601          -0.037309          -0.151497           0.069366          -0.02313
  hessian_block                7       9           0.414232           0.574017          -0.221303          -0.428922          -0.52607
  hessian_block                7      10           0.159593          -0.392296          -0.121329           0.073641          -0.73257
  hessian_block                7      11          -1.860039           0.059685          -1.590788           0.330687          -1.85333
  hessian_block                7      12           0.018281          -0.093257           0.358663          -0.434744           0.01187
  hessian_block                8       8           4.683687          -0.031636          -0.951308          -0.031636           5.52937
  hessian_block                8       9           0.267093          -0.459636          -0.177459           0.213994           0.28081
  hessian_block                8      10          -0.023514          -0.221067           0.112430          -0.420928          -0.31385
  hessian_block                8      11           0.296401          -0.288954          -0.120819           0.187372           0.54894
  hessian_block                8      12          -0.789485           0.880672           1.677128           0.988145          -1.42068
  hessian_block                9       9           5.033642          -0.553328          -0.806754          -0.553328           6.19999
  hessian_block                9      10          -0.041378           0.469763          -0.096034          -0.296859          -0.09905
  hessian_block                9      11          -0.228432           0.547653           0.008071          -0.607625           0.74589
  hessian_block                9      12           0.128162          -0.298518           0.584837           0.149263          -0.42466
  hessian_block               10      10           5.620930           0.562984           1.653140           0.562984           6.59288
  hessian_block               10      11          -0.030118           0.161705           0.514224           0.218865          -0.39709
  hessian_block               10      12          -0.485928           0.059679          -0.054570          -0.323233          -0.13734
  hessian_block               11      11           5.529442           0.648352           0.799810           0.648352           6.21584
  hessian_block               11      12           0.181319          -0.143008          -0.415920           0.381642          -0.19116
  hessian_block               12      12           4.872909           0.170081          -0.926129           0.170081           5.42067
  hessian_block_lv             1       1          26.049012          -2.259981           5.220922          -2.259981          24.01855
  hessian_block_lv_atom        1       1           0.143260           0.186305          -0.031869          -0.787749          -0.79684
  hessian_block_lv_atom        1       2          -1.080360          -1.271290          -0.290082           0.094358           0.04141
  hessian_block_lv_atom        1       3          -1.070088          -1.257401          -0.324492           0.433396           0.52530
  hessian_block_lv_atom        1       4          -0.094009          -0.110314          -0.088369           1.271268           1.26936
  hessian_block_lv_atom        1       5           0.881676           0.870795           0.482128          -0.173435          -0.44431
  hessian_block_lv_atom        1       6           0.273432           0.257381          -0.107561          -0.627458          -0.56642
  hessian_block_lv_atom        1       7          -0.992623          -1.284556           0.005064          -1.402484          -1.21424
  hessian_block_lv_atom        1       8           0.021194           0.422888          -0.183944          -0.197380          -0.48853
  hessian_block_lv_atom        1       9          -0.023689           0.233490          -0.227052          -0.526576          -0.47284
  hessian_block_lv_atom        1      10          -0.198142          -0.193261           0.235318           0.786733           0.47990
  hessian_block_lv_atom        1      11           1.319422           1.574158           0.119732           0.721543           0.80340
  hessian_block_lv_atom        1      12           0.819925           0.571804           0.411126           0.407784           0.86381
  symmetry_n_params 39 3 36
  symmetry_params a1 b2 c3 x0 x1 x2 x3 x4 x5 x6 x7 x8 x9 x10 x11 x12 x13 x14 x15 x16 x17 x18 x19 x20 x21 x22 x23 x24 x25 x26 x27 x28 x
  symmetry_lv a1 , 0 , 0
  symmetry_lv 0 , b2 , 0
  symmetry_lv 0 , 0 , c3
  symmetry_frac x0 , x1 , x2
  symmetry_frac x3 , x4 , x5
  symmetry_frac x6 , x7 , x8
  symmetry_frac x9 , x10 , x11
  symmetry_frac x12 , x13 , x14
  symmetry_frac x15 , x16 , x17
  symmetry_frac x18 , x19 , x20
  symmetry_frac x21 , x22 , x23
  symmetry_frac x24 , x25 , x26
  symmetry_frac x27 , x28 , x29
  symmetry_frac x30 , x31 , x32
  symmetry_frac x33 , x34 , x35
  
  -----------------------------------------------------------------------
  Completed first pass over input file geometry.in .
  -----------------------------------------------------------------------
  

  Basic array size parameters:
  | Number of species                 :        2
  | Number of atoms                   :       12
  | Number of lattice vectors         :        3
  | Max. basis fn. angular momentum   :        4
  | Max. atomic/ionic basis occupied n:        5
  | Max. number of basis fn. types    :        3
  | Max. radial fns per species/type  :       10
  | Max. logarithmic grid size        :     1444
  | Max. radial integration grid size :      125
  | Max. angular integration grid size:      434
  | Max. angular grid division number :        8
  | Radial grid for Hartree potential :     1444
  | Number of spin channels           :        1

------------------------------------------------------------
          Reading file control.in.
------------------------------------------------------------
  XC: Using PBE gradient-corrected functionals.
  Using libMBD for calculating MBD and TS energies
  Spin treatment: No spin polarisation.
  Found k-point grid:         9         9         8
  Scalar relativistic treatment of kinetic energy: on-site free-atom approximation to ZORA.
  Max energy increase before discarding BFGS move:   0.100000E-01 eV
  Assuming qualitatively harmonic for steps shorter than   0.150000E-01 A.
  S.C.F. convergence parameters will be adjusted in iteration number     3 of each new s.c.f. cycle.
  Geometry relaxation: Modified BFGS - TRM (trust radius method) for lattice optimization.
  Convergence accuracy for geometry relaxation: Maximum force <   0.100000E-01 eV/A.
 
  Reading configuration options for species Pd                  .
  | Found nuclear charge :  46.0000
  | Found atomic mass :    106.420000000000      amu
  | Found l_max for Hartree potential  :   6
  | Found cutoff potl. onset [A], width [A], scale factor :    4.00000    2.00000    1.00000
  | Threshold for basis-dependent cutoff potential is   0.100000E-03
  | Found data for basic radial integration grid :    62 points, outermost radius =    7.000 A
  | Found multiplier for basic radial grid :   2
  | Found angular grid specification: user-specified.
  | Specified grid contains     6 separate shells.
  | Check grid settings after all constraints further below.
  | Found free-atom valence shell :  5 s   1.000
  | Found free-atom valence shell :  4 p   6.000
  | Found free-atom valence shell :  4 d   9.000
  | Found free-ion valence shell :  5 s   0.000
  | Found free-ion valence shell :  4 p   6.000
  | Found free-ion valence shell :  4 d   8.000
  | Found ionic basis function :  5 p , default cutoff radius.
  | Found hydrogenic basis function :  4 f   8.000
  | Found hydrogenic basis function :  5 g  10.000
  | Found hydrogenic basis function :  3 s   2.600
  | Found hydrogenic basis function :  3 d   2.500
  Species Pd                  : Missing cutoff potential type.
  Defaulting to exp(1/x)/(1-x)^2 type cutoff potential.
  Species Pd: No 'logarithmic' tag. Using default grid for free atom:
  | Default logarithmic grid data [bohr] : 0.1000E-03 0.1000E+03 0.1012E+01
  | Will include ionic basis functions of  2.0-fold positive Pd                   ion.
  Species Pd: On-site basis accuracy parameter (for Gram-Schmidt orthonormalisation) not specified.
  Using default value basis_acc =  0.1000000E-03.
  Species Pd                  : Using default innermost maximum threshold i_radial=  2 for radial functions.
  Species Pd                  : Default cutoff onset for free atom density etc. : 0.40000000E+01 AA.
  Species Pd                  : Basic radial grid will be enhanced according to radial_multiplier =   2, to contain   125 grid points.
 
  Reading configuration options for species Se                  .
  | Found nuclear charge :  34.0000
  | Found atomic mass :    78.9600000000000      amu
  | Found l_max for Hartree potential  :   6
  | Found cutoff potl. onset [A], width [A], scale factor :    4.00000    2.00000    1.00000
  | Threshold for basis-dependent cutoff potential is   0.100000E-03
  | Found data for basic radial integration grid :    55 points, outermost radius =    7.000 A
  | Found multiplier for basic radial grid :   2
  | Found angular grid specification: user-specified.
  | Specified grid contains     5 separate shells.
  | Check grid settings after all constraints further below.
  | Found free-atom valence shell :  4 s   2.000
  | Found free-atom valence shell :  4 p   4.000
  | Found free-atom valence shell :  3 d  10.000
  | Found free-ion valence shell :  4 s   1.000
  | Found free-ion valence shell :  4 p   3.000
  | Found free-ion valence shell :  3 d  10.000
  | Found hydrogenic basis function :  3 d   4.300
  | Found hydrogenic basis function :  2 p   1.600
  | Found hydrogenic basis function :  4 f   7.200
  | Found ionic basis function :  4 s , default cutoff radius.
  Species Se                  : Missing cutoff potential type.
  Defaulting to exp(1/x)/(1-x)^2 type cutoff potential.
  Species Se: No 'logarithmic' tag. Using default grid for free atom:
  | Default logarithmic grid data [bohr] : 0.1000E-03 0.1000E+03 0.1012E+01
  | Will include ionic basis functions of  2.0-fold positive Se                   ion.
  Species Se: On-site basis accuracy parameter (for Gram-Schmidt orthonormalisation) not specified.
  Using default value basis_acc =  0.1000000E-03.
  Species Se                  : Using default innermost maximum threshold i_radial=  2 for radial functions.
  Species Se                  : Default cutoff onset for free atom density etc. : 0.40000000E+01 AA.
  Species Se                  : Basic radial grid will be enhanced according to radial_multiplier =   2, to contain   111 grid points.
 
  Finished reading input file 'control.in'. Consistency checks are next.
 
  MPI_IN_PLACE appears to work with this MPI implementation.
  | Keeping use_mpi_in_place .true. (see manual).
  Target number of points in a grid batch is not set. Defaulting to  100
  Method for grid partitioning is not set. Defaulting to parallel hash+maxmin partitioning.
  Batch size limit is not set. Defaulting to    200
  By default, will store active basis functions for each batch.
  If in need of memory, prune_basis_once .false. can be used to disable this option.
  communication_type for Hartree potential was not specified.
  Defaulting to calc_hartree .
  Defaulting to Pulay charge density mixer.
  Pulay mixer: Number of relevant iterations not set.
  Defaulting to    8 iterations.
  Pulay mixer: Number of initial linear mixing iterations not set.
  Defaulting to    0 iterations.
  Work space size for distributed Hartree potential not set.
  Defaulting to   0.200000E+03 MB.
  Mixing parameter for charge density mixing has not been set.
  Using default: charge_mix_param =     0.0500.
  The mixing parameter will be adjusted in iteration number     3 of each s.c.f. cycle (i.e., each geometry step).
  Algorithm-dependent basis array size parameters:
  | n_max_pulay                         :        8
  Maximum number of self-consistency iterations not provided.
  Presetting  1000 iterations.
  Presetting      1001 iterations before the initial mixing cycle
  is restarted anyway using the sc_init_iter criterion / keyword.
  Presetting a factor      1.000 between actual scf density residual
  and density convergence criterion sc_accuracy_rho below which sc_init_iter
  takes no effect.
 * No s.c.f. convergence criteria (sc_accuracy_*) were provided in control.in.
 * The run will proceed with a reasonable default guess, but please check whether.
 * the s.c.f. cycles seem to take too much or too little time.
  No maximum number of relaxation steps, defaulting to     1000
  Using explicit Hessian from geometry.in.
  Maximum energy tolerance by which TRM/BFGS trajectory may increase over multiple steps:   0.300000E-02
  No trust radius initializer. Defaulting to   0.200000E+00 A.
  Unit cell relaxation: Unit cell will be relaxed fully.
  Unit cell relaxation: Analytical stress will be used.
  Analytical stress will be computed.
  Analytical stress calculation: Only the upper triangle is calculated.
                                 Final output is symmetrized.
  Analytical stress calculation: scf convergence accuracy of stress not set.
                                 Analytical stress self-consistency will not be checked explicitly.
                                 Be sure to set other criteria like sc_accuracy_rho tight enough.
 * Notice: The s.c.f. convergence criterion sc_accuracy_rho was not provided.
 * We used to stop in this case, and ask the user to provide reasonable
 * scf convergence criteria. However, this led some users to employ criteria
 * that led to extremely long run times, e.g., for simple relaxation.
 * We now preset a default value for sc_accuracy_rho if it is not set.
 * You may still wish to check if this setting is too tight or too loose for your needs.
 * Based on n_atoms, FHI-aims chose sc_accuracy_rho =  0.141421E-05 .
  Force calculation: scf convergence accuracy of forces not set.
  Defaulting to 'sc_accuracy_forces not_checked'.
  Handling of forces: Unphysical translation and rotation will be removed from forces.
  No accuracy limit for integral partition fn. given. Defaulting to  0.1000E-14.
  No threshold value for u(r) in integrations given. Defaulting to  0.1000E-05.
  No occupation type (smearing scheme) given. Defaulting to Gaussian broadening, width =  0.1000E-01 eV.
  The width will be adjusted in iteration number     3 of each s.c.f. cycle (i.e., each geometry step).
  S.C.F. convergence parameters will be adjusted in iteration number     3 of the first full s.c.f. cycle only.
  No accuracy for occupation numbers given. Defaulting to  0.1000E-12.
  No threshold value for occupation numbers given. Defaulting to  0.0000E+00.
  No accuracy for fermi level given. Defaulting to  0.1000E-19.
  Maximum # of iterations to find E_F not set. Defaulting to  200.
  Preferred method for the eigenvalue solver ('KS_method') not specified in 'control.in'.
  Defaulting to serial version, LAPACK (via ELSI), since more k-points than CPUs available.
  Will not use alltoall communication since running on < 1024 CPUs.
  Threshold for basis singularities not set.
  Default threshold for basis singularities:  0.1000E-04
  partition_type (choice of integration weights) for integrals was not specified.
  | Using a version of the partition function of Stratmann and coworkers ('stratmann_sparse').
  | At each grid point, the set of atoms used to build the partition table is smoothly restricted to
  | only those atoms whose free-atom density would be non-zero at that grid point.
  Partitioning for Hartree potential was not defined. Using partition_type for integrals.
  | Adjusted default value of keyword multip_moments_threshold to:       0.10000000E-11
  | This value may affect high angular momentum components of the Hartree potential in periodic systems.
  Angular momentum expansion for Kerker preconditioner not set explicitly.
  | Using default value of   0
  No explicit requirement for turning off preconditioner.
  | By default, it will be turned off when the charge convergence reaches
  | sc_accuracy_rho  =   0.141421E-05
  No special mixing parameter while Kerker preconditioner is on.
  Using default: charge_mix_param =     0.0500.
  No q(lm)/r^(l+1) cutoff set for long-range Hartree potential.
  | Using default value of  0.100000E-09 .
  | Verify using the multipole_threshold keyword.
  Defaulting to new monopole extrapolation.
  Density update method: automatic selection selected.
  Using density matrix based charge density update.
  Using density matrix based charge density update.
  Using packed matrix style: index .
  Geometry relaxation: A file "geometry.in.next_step" is written out by default after each step.
  | This file contains the geometry of the current relaxation step as well as
  | the current Hessian matrix needed to restart the relaxation algorithm.
  | If you do not want part or all of this information, use the keywords
  | "write_restart_geometry" or "hessian_to_restart_geometry" to switch the output off.
  Defaulting to use time-reversal symmetry for k-point grid.
  Charge integration errors on the 3D integration grid will be compensated
  by explicit normalization and distribution of residual charges.
  Use the "compensate_multipole_errors" flag to change this behaviour.
------------------------------------------------------------


------------------------------------------------------------
          Reading geometry description geometry.in.
------------------------------------------------------------
  Input structure read successfully.
  The structure contains       12 atoms,  and a total of        456.000 electrons.

  Input geometry:
  | Unit cell:
  |        5.85270387        0.00000000        0.00000000
  |        0.00000000        5.95778788        0.00000000
  |        0.00000000        0.00000000        7.44091280
  | Atomic structure:
  |       Atom                x [A]            y [A]            z [A]
  |    1: Species Pd            2.93407791        0.00790658        0.01041973
  |    2: Species Pd            0.00792076        0.00808460        3.72962085
  |    3: Species Pd            0.00760430        2.98646551        0.01012626
  |    4: Species Pd            2.93387336        2.98658681        3.72992474
  |    5: Species Se            3.58799900        0.71025679        3.00092884
  |    6: Species Se            5.20638375        5.26293245        6.72162067
  |    7: Species Se            0.66196182        2.28436279        4.45924834
  |    8: Species Se            2.28006383        3.68903830        0.73916867
  |    9: Species Se            2.27991201        5.26289277        4.45912876
  |   10: Species Se            0.66179086        0.71031833        0.73904069
  |   11: Species Se            5.20610950        3.68924760        3.00095607
  |   12: Species Se            3.58787053        2.28454778        6.72140719

  Lattice parameters for 3D lattice (in Angstroms) :     5.852704    5.957788    7.440913
  Angle(s) between unit vectors (in degrees)       :    90.000000   90.000000   90.000000

  | The smallest distance between any two atoms is         2.41053576 AA.
  | The first atom of this pair is atom number                      8 .
  | The second atom of this pair is atom number                    12 .
  | Wigner-Seitz cell of the first atom image          -1     1     0 .
  | (The Wigner-Seitz cell of the second atom is 0 0 0  by definition.)

  Symmetry information by spglib:
  | Precision set to  0.1E-04
  | Number of Operations  : 1
  | Space group           : 1
  | International         : P1  N    8
  | Schoenflies           : C1^1

  Quantities derived from the lattice vectors:
  | Reciprocal lattice vector 1:  1.073553  0.000000  0.000000
  | Reciprocal lattice vector 2:  0.000000  1.054617  0.000000
  | Reciprocal lattice vector 3:  0.000000  0.000000  0.844411
  | Unit cell volume                               :   0.259458E+03  A^3

  Range separation radius for Ewald summation (hartree_convergence_parameter):      3.99979844 bohr.

  Fractional coordinates:
                         L1                L2                L3
       atom_frac         0.50132007        0.00132710        0.00140033  Pd
       atom_frac         0.00135335        0.00135698        0.50123163  Pd
       atom_frac         0.00129928        0.50127087        0.00136089  Pd
       atom_frac         0.50128512        0.50129123        0.50127247  Pd
       atom_frac         0.61304981        0.11921485        0.40330117  Se
       atom_frac         0.88956897        0.88337023        0.90333281  Se
       atom_frac         0.11310359        0.38342466        0.59928781  Se
       atom_frac         0.38957444        0.61919598        0.09933844  Se
       atom_frac         0.38954850        0.88336357        0.59927174  Se
       atom_frac         0.11307438        0.11922518        0.09932124  Se
       atom_frac         0.88952211        0.61923111        0.40330483  Se
       atom_frac         0.61302786        0.38345571        0.90330412  Se

  Number of empty states per atom not set in control.in - providing a guess from actual geometry.
  | Total number of empty states used during s.c.f. cycle:       66
  If you use a very high smearing, use empty_states (per atom!) in control.in to increase this value.

  Structure-dependent array size parameters: 
  | Maximum number of distinct radial functions  :       27
  | Maximum number of basis functions            :      468
  | Number of Kohn-Sham states (occupied + empty):      294
------------------------------------------------------------

------------------------------------------------------------
          Preparing all fixed parts of the calculation.
------------------------------------------------------------
  Determining machine precision:
    2.225073858507201E-308
  Setting up grids for atomic and cluster calculations.

  Creating wave function, potential, and density for free atoms.

  Species: Pd

  List of occupied orbitals and eigenvalues:
    n    l              occ      energy [Ha]    energy [eV]
    1    0           2.0000      -913.269104    -24851.3168
    2    0           2.0000      -130.434372     -3549.2998
    3    0           2.0000       -23.521804      -640.0609
    4    0           2.0000        -3.256918       -88.6253
    5    0           1.0000        -0.157260        -4.2793
    2    1           6.0000      -116.910756     -3181.3035
    3    1           6.0000       -19.103344      -519.8284
    4    1           6.0000        -1.998052       -54.3697
    3    2          10.0000       -12.098182      -329.2083
    4    2           9.0000        -0.243389        -6.6230


  Species: Se

  List of occupied orbitals and eigenvalues:
    n    l              occ      energy [Ha]    energy [eV]
    1    0           2.0000      -466.337810    -12689.6975
    2    0           2.0000       -59.202598     -1610.9847
    3    0           2.0000        -7.847116      -213.5309
    4    0           2.0000        -0.634372       -17.2621
    2    1           6.0000       -52.061107     -1416.6548
    3    1           6.0000        -5.620941      -152.9536
    4    1           4.0000        -0.238469        -6.4891
    3    2          10.0000        -1.951949       -53.1152

  Creating fixed part of basis set: Ionic, confined, hydrogenic.
 
  Pd                   ion:

  List of free ionic orbitals and eigenvalues:
    n    l      energy [Ha]    energy [eV]
    1    0      -914.099884    -24873.9234
    2    0      -131.248265     -3571.4470
    3    0       -24.332473      -662.1203
    4    0        -4.059276      -110.4585
    2    1      -117.724296     -3203.4411
    3    1       -19.913908      -541.8850
    4    1        -2.795328       -76.0648
    3    2       -12.908733      -351.2645
    4    2        -1.004248       -27.3270


  List of ionic basis orbitals and eigenvalues:
    n    l      energy [Ha]    energy [eV]    outer radius [A]
    5    1        -0.516938       -14.0666       5.427025

 
  Pd                   hydrogenic:
 
  List of hydrogenic basis orbitals: 
    n    l      effective z      eigenvalue [eV]  inner max. [A]     outer max. [A]     outer radius [A]   
    4    3         8.000000       -54.4226           1.054686           1.054686           4.629581
    5    4        10.000000       -54.4226           1.330451           1.330451           5.043202
    3    0         2.600000        -9.8948           0.150992           2.606197           5.493778
    3    2         2.500000        -9.3396           1.873517           1.873517           5.493778
 
 
  Se                   ion:

  List of free ionic orbitals and eigenvalues:
    n    l      energy [Ha]    energy [eV]
    1    0      -467.261007    -12714.8189
    2    0       -60.104893     -1635.5374
    3    0        -8.743714      -237.9286
    4    0        -1.414053       -38.4783
    2    1       -52.964156     -1441.2280
    3    1        -6.516916      -177.3343
    4    1        -0.961869       -26.1738
    3    2        -2.844511       -77.4031


  List of ionic basis orbitals and eigenvalues:
    n    l      energy [Ha]    energy [eV]    outer radius [A]
    4    0        -1.414046       -38.4782       4.083166

 
  Se                   hydrogenic:
 
  List of hydrogenic basis orbitals: 
    n    l      effective z      eigenvalue [eV]  inner max. [A]     outer max. [A]     outer radius [A]   
    3    2         4.300000       -27.9518           1.103845           1.103845           5.278265
    2    1         1.600000        -8.6828           1.326010           1.326010           5.475439
    4    3         7.200000       -44.0822           1.173422           1.173422           4.965294
 

  Adding cutoff potential to free-atom effective potential.
  Creating atomic-like basis functions for current effective potential.

  Species Pd                  :

  List of atomic basis orbitals and eigenvalues:
    n    l      energy [Ha]    energy [eV]    outer radius [A]
    1    0      -913.269104    -24851.3168       0.223280
    2    0      -130.434372     -3549.2998       0.615909
    3    0       -23.521804      -640.0609       1.414312
    4    0        -3.256918       -88.6253       3.581357
    5    0        -0.157260        -4.2793       5.427025
    2    1      -116.910756     -3181.3035       0.631154
    3    1       -19.103344      -519.8284       1.540671
    4    1        -1.998052       -54.3697       4.408641
    3    2       -12.098182      -329.2083       1.806051
    4    2        -0.243389        -6.6230       5.361084


  Species Se                  :

  List of atomic basis orbitals and eigenvalues:
    n    l      energy [Ha]    energy [eV]    outer radius [A]
    1    0      -466.337810    -12689.6975       0.309561
    2    0       -59.202598     -1610.9847       0.885812
    3    0        -7.847116      -213.5309       2.355489
    4    0        -0.634372       -17.2621       5.214131
    2    1       -52.061107     -1416.6548       0.907737
    3    1        -5.620941      -152.9536       2.694529
    4    1        -0.238469        -6.4891       5.408909
    3    2        -1.951949       -53.1152       4.083166

  Assembling full basis from fixed parts.
  | Species Pd :   atomic orbital   1 s accepted.
  | Species Pd :   atomic orbital   2 s accepted.
  | Species Pd :   atomic orbital   3 s accepted.
  | Species Pd :   atomic orbital   4 s accepted.
  | Species Pd :   atomic orbital   5 s accepted.
  | Species Pd :    hydro orbital   3 s accepted.
  | Species Pd :   atomic orbital   2 p accepted.
  | Species Pd :   atomic orbital   3 p accepted.
  | Species Pd :   atomic orbital   4 p accepted.
  | Species Pd :    ionic orbital   5 p accepted.
  | Species Pd :   atomic orbital   3 d accepted.
  | Species Pd :   atomic orbital   4 d accepted.
  | Species Pd :    hydro orbital   3 d accepted.
  | Species Pd :    hydro orbital   4 f accepted.
  | Species Pd :    hydro orbital   5 g accepted.
  | Species Se :   atomic orbital   1 s accepted.
  | Species Se :   atomic orbital   2 s accepted.
  | Species Se :   atomic orbital   3 s accepted.
  | Species Se :    ionic orbital   4 s accepted.
  | Species Se :   atomic orbital   4 s accepted.
  | Species Se :   atomic orbital   2 p accepted.
  | Species Se :   atomic orbital   3 p accepted.
  | Species Se :   atomic orbital   4 p accepted.
  | Species Se :    hydro orbital   2 p accepted.
  | Species Se :   atomic orbital   3 d accepted.
  | Species Se :    hydro orbital   3 d accepted.
  | Species Se :    hydro orbital   4 f accepted.
 
  Basis size parameters after reduction:
  | Total number of radial functions:       27
  | Total number of basis functions :      468
 
  Per-task memory consumption for arrays in subroutine allocate_ext:
  |           9.993344MB.
  Testing on-site integration grid accuracy.
  |  Species  Function  <phi|h_atom|phi> (log., in eV)  <phi|h_atom|phi> (rad., in eV)
           1        1             -24851.3167505682             -24851.3148165635
           1        2              -3549.2998457785              -3549.2998098031
           1        3               -640.0608571327               -640.0608534886
           1        4                -88.6252603131                -88.6252593316
           1        5                 -4.2849374515                 -4.2849400622
           1        6                  4.9432123540                  4.9432188418
           1        7              -3181.3035399559              -3181.3035364574
           1        8               -519.8284281886               -519.8284264063
           1        9                -54.3697495804                -54.3697489261
           1       10                  0.8628369484                  0.8628370487
           1       11               -329.2082917394               -329.2082912864
           1       12                 -6.6230267036                 -6.6230265076
           1       13                  5.4924295291                  5.4924115607
           1       14                 25.0740861942                 25.0740861175
           1       15                 38.8271273823                 38.8271278029
           2       16             -12689.6974611609             -12689.6967666984
           2       17              -1610.9846578580              -1610.9846472470
           2       18               -213.5308789869               -213.5308777267
           2       19                -17.0464428502                -17.0464426496
           2       20                  6.7356859379                  6.7356842047
           2       21              -1416.6548010133              -1416.6548002108
           2       22               -152.9535734377               -152.9535727493
           2       23                 -6.4896265677                 -6.4896303794
           2       24                  5.2703037283                  5.2701679583
           2       25                -53.1152220964                -53.1152219035
           2       26                  7.6186674138                  7.6186665630
           2       27                 23.1072799052                 23.1072803137

  Preparing densities etc. for the partition functions (integrals / Hartree potential).

  Preparations completed.
  max(cpu_time)          :      0.557 s.
  Wall clock time (cpu1) :      0.661 s.
------------------------------------------------------------

------------------------------------------------------------
          Begin self-consistency loop: Initialization.

          Date     :  20200420, Time     :  204040.410
------------------------------------------------------------

  Initializing index lists of integration centers etc. from given atomic structure:
  Mapping all atomic coordinates to central unit cell.

  Initializing the k-points
  Using symmetry for reducing the k-points
  | k-points reduced from:      648 to      325
  | Number of k-points                             :       325
  The eigenvectors in the calculations are COMPLEX.
  | K-points in task   0:        13
  | K-points in task   1:        14
  | K-points in task   2:        14
  | K-points in task   3:        14
  | K-points in task   4:        14
  | K-points in task   5:        14
  | K-points in task   6:        14
  | K-points in task   7:        14
  | K-points in task   8:        14
  | K-points in task   9:        14
  | K-points in task  10:        14
  | K-points in task  11:        14
  | K-points in task  12:        14
  | K-points in task  13:        14
  | K-points in task  14:        13
  | K-points in task  15:        13
  | K-points in task  16:        13
  | K-points in task  17:        13
  | K-points in task  18:        13
  | K-points in task  19:        13
  | K-points in task  20:        13
  | K-points in task  21:        13
  | K-points in task  22:        13
  | K-points in task  23:        13
  | Number of basis functions in the Hamiltonian integrals :      5588
  | Number of basis functions in a single unit cell        :       468
  | Number of centers in hartree potential         :      1322
  | Number of centers in hartree multipole         :       768
  | Number of centers in electron density summation:       595
  | Number of centers in basis integrals           :       640
  | Number of centers in integrals                 :       236
  | Number of centers in hamiltonian               :       596
  | Consuming        436 KiB for k_phase.
  | Number of super-cells (origin) [n_cells]                     :         567
  | Number of super-cells (after PM_index) [n_cells]             :          86
  | Number of super-cells in hamiltonian [n_cells_in_hamiltonian]:          86
  | Size of matrix packed + index [n_hamiltonian_matrix_size] :     1292647

  Initializing relaxation algorithms.
  | Estimated reciprocal-space cutoff momentum G_max:         2.42829963 bohr^-1 .
  | Reciprocal lattice points for long-range Hartree potential:     418
  Partitioning the integration grid into batches with parallel hashing+maxmin method.
  | Number of batches:     4169
  | Maximal batch size:     110
  | Minimal batch size:      49
  | Average batch size:      92.141
  | Standard deviation of batch sizes:      11.079

  Integration load balanced across    24 MPI tasks.
  Work distribution over tasks is as follows:
  Task     0 has      16024 integration points.
  Task     1 has      16044 integration points.
  Task     2 has      15988 integration points.
  Task     3 has      15972 integration points.
  Task     4 has      15987 integration points.
  Task     5 has      15984 integration points.
  Task     6 has      16046 integration points.
  Task     7 has      15987 integration points.
  Task     8 has      15977 integration points.
  Task     9 has      15971 integration points.
  Task    10 has      15983 integration points.
  Task    11 has      16023 integration points.
  Task    12 has      16004 integration points.
  Task    13 has      16026 integration points.
  Task    14 has      16028 integration points.
  Task    15 has      15975 integration points.
  Task    16 has      16026 integration points.
  Task    17 has      16003 integration points.
  Task    18 has      15983 integration points.
  Task    19 has      15972 integration points.
  Task    20 has      16032 integration points.
  Task    21 has      16034 integration points.
  Task    22 has      16043 integration points.
  Task    23 has      16024 integration points.
  Initializing partition tables, free-atom densities, potentials, etc. across the integration grid (initialize_grid_storage).
  | initialize_grid_storage: Actual outermost partition radius vs. multipole_radius_free
  | (-- VB: in principle, multipole_radius_free should be larger, hence this output)
  | Species        1: Confinement radius =              6.000000000000000 AA, multipole_radius_free =              6.058219618167466 AA.
  | Species        1: outer_partition_radius set to              6.058219618167466 AA .
  | Species        2: Confinement radius =              6.000000000000000 AA, multipole_radius_free =              6.037996416842453 AA.
  | Species        2: outer_partition_radius set to              6.037996416842453 AA .
  | The sparse table of interatomic distances needs       2897.83 kbyte instead of      3276.80 kbyte of memory.
  | Net number of integration points:   384136
  | of which are non-zero points    :   322122
  | Numerical average free-atom electrostatic potential    :    -17.06800578 eV
  Renormalizing the initial density to the exact electron count on the 3D integration grid.
  | Initial density: Formal number of electrons (from input files) :     456.0000000000
  | Integrated number of electrons on 3D grid     :     456.0000592890
  | Charge integration error                      :       0.0000592890
  | Normalization factor for density and gradient :       0.9999998700
  Renormalizing the free-atom superposition density to the exact electron count on the 3D integration grid.
  | Formal number of electrons (from input files) :     456.0000000000
  | Integrated number of electrons on 3D grid     :     456.0000592890
  | Charge integration error                      :       0.0000592890
  | Normalization factor for density and gradient :       0.9999998700
  Obtaining max. number of non-zero basis functions in each batch (get_n_compute_maxes).
  | Maximal number of non-zero basis functions:     1018 in task     0
  | Maximal number of non-zero basis functions:     1017 in task     1
  | Maximal number of non-zero basis functions:     1020 in task     2
  | Maximal number of non-zero basis functions:     1038 in task     3
  | Maximal number of non-zero basis functions:     1005 in task     4
  | Maximal number of non-zero basis functions:     1008 in task     5
  | Maximal number of non-zero basis functions:     1032 in task     6
  | Maximal number of non-zero basis functions:     1018 in task     7
  | Maximal number of non-zero basis functions:     1019 in task     8
  | Maximal number of non-zero basis functions:     1016 in task     9
  | Maximal number of non-zero basis functions:     1023 in task    10
  | Maximal number of non-zero basis functions:     1011 in task    11
  | Maximal number of non-zero basis functions:     1026 in task    12
  | Maximal number of non-zero basis functions:     1004 in task    13
  | Maximal number of non-zero basis functions:     1052 in task    14
  | Maximal number of non-zero basis functions:     1020 in task    15
  | Maximal number of non-zero basis functions:     1027 in task    16
  | Maximal number of non-zero basis functions:     1017 in task    17
  | Maximal number of non-zero basis functions:     1004 in task    18
  | Maximal number of non-zero basis functions:     1037 in task    19
  | Maximal number of non-zero basis functions:     1025 in task    20
  | Maximal number of non-zero basis functions:     1040 in task    21
  | Maximal number of non-zero basis functions:     1025 in task    22
  | Maximal number of non-zero basis functions:     1022 in task    23
  Allocating       27.293 MB for KS_eigenvector_complex
  Integrating Hamiltonian matrix: batch-based integration.
  Time summed over all CPUs for integration: real work       63.653 s, elapsed       64.743 s
  Integrating overlap matrix.
  Time summed over all CPUs for integration: real work       45.961 s, elapsed       46.745 s
  Decreasing sparse matrix size:
  | Tolerance:  0.1000E-12
  Hamiltonian matrix
  | Array has  1118752 nonzero elements out of  1292647 elements
  | Sparsity factor is 0.135
  Overlap matrix
  | Array has  1032560 nonzero elements out of  1292647 elements
  | Sparsity factor is 0.201
  New size of hamiltonian matrix:     1118848

  Updating Kohn-Sham eigenvalues and eigenvectors using ELSI and the (modified) LAPACK eigensolver.
  Singularity check in k-point 24, task 0 (analysis for other k-points/tasks may follow below):
  Overlap matrix is not singular
  | Lowest and highest eigenvalues :  0.7638E-03,  0.7210E+01
  Finished singularity check of overlap matrix
  | Time :     0.076 s
  Starting LAPACK eigensolver
  Finished Cholesky decomposition
  | Time :     0.019 s
  Finished transformation to standard eigenproblem
  | Time :     0.021 s
  Finished solving standard eigenproblem
  | Time :     0.072 s
  Finished back-transformation of eigenvectors
  | Time :     0.008 s

  Obtaining occupation numbers and chemical potential using ELSI.
  | Chemical potential (Fermi level):    -4.63548959 eV
  Writing Kohn-Sham eigenvalues.
  K-point:       1 at    0.000000    0.000000    0.000000 (in units of recip. lattice)

  State    Occupation    Eigenvalue [Ha]    Eigenvalue [eV]
      1       2.00000        -913.279505       -24851.59976
      2       2.00000        -913.279498       -24851.59958
      3       2.00000        -913.279497       -24851.59954
      4       2.00000        -913.279494       -24851.59947
      5       2.00000        -466.350252       -12690.03601
      6       2.00000        -466.350248       -12690.03590
      7       2.00000        -466.350248       -12690.03590
      8       2.00000        -466.350247       -12690.03587
      9       2.00000        -466.350246       -12690.03585
     10       2.00000        -466.350243       -12690.03578
     11       2.00000        -466.350242       -12690.03575
     12       2.00000        -466.350238       -12690.03565
     13       2.00000        -130.445089        -3549.59147
     14       2.00000        -130.445082        -3549.59130
     15       2.00000        -130.445081        -3549.59126
     16       2.00000        -130.445078        -3549.59118
     17       2.00000        -116.921497        -3181.59582
     18       2.00000        -116.921491        -3181.59564
     19       2.00000        -116.921489        -3181.59560
     20       2.00000        -116.921488        -3181.59558
     21       2.00000        -116.921486        -3181.59552
     22       2.00000        -116.921482        -3181.59540
     23       2.00000        -116.921480        -3181.59536
     24       2.00000        -116.921478        -3181.59528
     25       2.00000        -116.921434        -3181.59411
     26       2.00000        -116.921428        -3181.59393
     27       2.00000        -116.921426        -3181.59389
     28       2.00000        -116.921424        -3181.59382
     29       2.00000         -59.215465        -1611.33477
     30       2.00000         -59.215460        -1611.33466
     31       2.00000         -59.215460        -1611.33466
     32       2.00000         -59.215459        -1611.33463
     33       2.00000         -59.215458        -1611.33461
     34       2.00000         -59.215456        -1611.33454
     35       2.00000         -59.215455        -1611.33451
     36       2.00000         -59.215451        -1611.33441
     37       2.00000         -52.073981        -1417.00513
     38       2.00000         -52.073977        -1417.00501
     39       2.00000         -52.073977        -1417.00501
     40       2.00000         -52.073976        -1417.00498
     41       2.00000         -52.073975        -1417.00496
     42       2.00000         -52.073973        -1417.00489
     43       2.00000         -52.073971        -1417.00485
     44       2.00000         -52.073968        -1417.00476
     45       2.00000         -52.073955        -1417.00442
     46       2.00000         -52.073951        -1417.00431
     47       2.00000         -52.073951        -1417.00431
     48       2.00000         -52.073950        -1417.00428
     49       2.00000         -52.073949        -1417.00426
     50       2.00000         -52.073947        -1417.00419
     51       2.00000         -52.073946        -1417.00416
     52       2.00000         -52.073942        -1417.00406
     53       2.00000         -52.073908        -1417.00314
     54       2.00000         -52.073904        -1417.00302
     55       2.00000         -52.073904        -1417.00302
     56       2.00000         -52.073903        -1417.00300
     57       2.00000         -52.073902        -1417.00297
     58       2.00000         -52.073900        -1417.00290
     59       2.00000         -52.073898        -1417.00287
     60       2.00000         -52.073895        -1417.00277
     61       2.00000         -23.533283         -640.37322
     62       2.00000         -23.533276         -640.37303
     63       2.00000         -23.533275         -640.37299
     64       2.00000         -23.533272         -640.37291
     65       2.00000         -19.115078         -520.14774
     66       2.00000         -19.115071         -520.14755
     67       2.00000         -19.115069         -520.14750
     68       2.00000         -19.115066         -520.14742
     69       2.00000         -19.114991         -520.14536
     70       2.00000         -19.114983         -520.14516
     71       2.00000         -19.114982         -520.14513
     72       2.00000         -19.114979         -520.14505
     73       2.00000         -19.114456         -520.13082
     74       2.00000         -19.114449         -520.13063
     75       2.00000         -19.114448         -520.13059
     76       2.00000         -19.114445         -520.13052
     77       2.00000         -12.109885         -329.52674
     78       2.00000         -12.109878         -329.52655
     79       2.00000         -12.109876         -329.52650
     80       2.00000         -12.109873         -329.52642
     81       2.00000         -12.109850         -329.52577
     82       2.00000         -12.109842         -329.52558
     83       2.00000         -12.109841         -329.52554
     84       2.00000         -12.109838         -329.52546
     85       2.00000         -12.109505         -329.51640
     86       2.00000         -12.109498         -329.51621
     87       2.00000         -12.109497         -329.51617
     88       2.00000         -12.109494         -329.51609
     89       2.00000         -12.109449         -329.51488
     90       2.00000         -12.109442         -329.51469
     91       2.00000         -12.109441         -329.51465
     92       2.00000         -12.109438         -329.51457
     93       2.00000         -12.109366         -329.51262
     94       2.00000         -12.109359         -329.51243
     95       2.00000         -12.109358         -329.51239
     96       2.00000         -12.109355         -329.51232
     97       2.00000          -7.861765         -213.92950
     98       2.00000          -7.861762         -213.92942
     99       2.00000          -7.861761         -213.92940
    100       2.00000          -7.861760         -213.92937
    101       2.00000          -7.861755         -213.92925
    102       2.00000          -7.861753         -213.92919
    103       2.00000          -7.861752         -213.92916
    104       2.00000          -7.861749         -213.92906
    105       2.00000          -5.636177         -153.36817
    106       2.00000          -5.636172         -153.36804
    107       2.00000          -5.636172         -153.36803
    108       2.00000          -5.636170         -153.36799
    109       2.00000          -5.636169         -153.36797
    110       2.00000          -5.636166         -153.36789
    111       2.00000          -5.636164         -153.36782
    112       2.00000          -5.636161         -153.36773
    113       2.00000          -5.635922         -153.36125
    114       2.00000          -5.635921         -153.36121
    115       2.00000          -5.635921         -153.36121
    116       2.00000          -5.635921         -153.36120
    117       2.00000          -5.635853         -153.35937
    118       2.00000          -5.635851         -153.35932
    119       2.00000          -5.635851         -153.35931
    120       2.00000          -5.635850         -153.35929
    121       2.00000          -5.635261         -153.34326
    122       2.00000          -5.635257         -153.34315
    123       2.00000          -5.635257         -153.34314
    124       2.00000          -5.635256         -153.34311
    125       2.00000          -5.635253         -153.34305
    126       2.00000          -5.635251         -153.34298
    127       2.00000          -5.635251         -153.34297
    128       2.00000          -5.635246         -153.34285
    129       2.00000          -3.273942          -89.08848
    130       2.00000          -3.273931          -89.08821
    131       2.00000          -3.273929          -89.08814
    132       2.00000          -3.273925          -89.08803
    133       2.00000          -2.020243          -54.97362
    134       2.00000          -2.020233          -54.97334
    135       2.00000          -2.020210          -54.97271
    136       2.00000          -2.020202          -54.97249
    137       2.00000          -2.019241          -54.94635
    138       2.00000          -2.019230          -54.94606
    139       2.00000          -2.019198          -54.94517
    140       2.00000          -2.019190          -54.94495
    141       2.00000          -2.013030          -54.77734
    142       2.00000          -2.013022          -54.77711
    143       2.00000          -2.013019          -54.77703
    144       2.00000          -2.013015          -54.77693
    145       2.00000          -1.969174          -53.58396
    146       2.00000          -1.969169          -53.58382
    147       2.00000          -1.969147          -53.58321
    148       2.00000          -1.969142          -53.58308
    149       2.00000          -1.968142          -53.55586
    150       2.00000          -1.968135          -53.55567
    151       2.00000          -1.968120          -53.55526
    152       2.00000          -1.968117          -53.55519
    153       2.00000          -1.967731          -53.54469
    154       2.00000          -1.967725          -53.54452
    155       2.00000          -1.967716          -53.54428
    156       2.00000          -1.967709          -53.54409
    157       2.00000          -1.967580          -53.54058
    158       2.00000          -1.967578          -53.54051
    159       2.00000          -1.967572          -53.54035
    160       2.00000          -1.967566          -53.54020
    161       2.00000          -1.967309          -53.53320
    162       2.00000          -1.967302          -53.53301
    163       2.00000          -1.967283          -53.53251
    164       2.00000          -1.967275          -53.53229
    165       2.00000          -1.967255          -53.53173
    166       2.00000          -1.967246          -53.53148
    167       2.00000          -1.967230          -53.53105
    168       2.00000          -1.967227          -53.53097
    169       2.00000          -1.967189          -53.52994
    170       2.00000          -1.967177          -53.52961
    171       2.00000          -1.967176          -53.52958
    172       2.00000          -1.967173          -53.52950
    173       2.00000          -1.967173          -53.52950
    174       2.00000          -1.967167          -53.52933
    175       2.00000          -1.967166          -53.52931
    176       2.00000          -1.967157          -53.52906
    177       2.00000          -1.966634          -53.51483
    178       2.00000          -1.966632          -53.51478
    179       2.00000          -1.966625          -53.51458
    180       2.00000          -1.966620          -53.51445
    181       2.00000          -1.966289          -53.50544
    182       2.00000          -1.966281          -53.50524
    183       2.00000          -1.966278          -53.50514
    184       2.00000          -1.966274          -53.50505
    185       2.00000          -0.759287          -20.66125
    186       2.00000          -0.740368          -20.14643
    187       2.00000          -0.720081          -19.59440
    188       2.00000          -0.718466          -19.55046
    189       2.00000          -0.652816          -17.76404
    190       2.00000          -0.640877          -17.43916
    191       2.00000          -0.639498          -17.40163
    192       2.00000          -0.627659          -17.07948
    193       2.00000          -0.418446          -11.38650
    194       2.00000          -0.410647          -11.17427
    195       2.00000          -0.389419          -10.59664
    196       2.00000          -0.376627          -10.24854
    197       2.00000          -0.370633          -10.08543
    198       2.00000          -0.369139          -10.04478
    199       2.00000          -0.366441           -9.97136
    200       2.00000          -0.366171           -9.96402
    201       2.00000          -0.364790           -9.92645
    202       2.00000          -0.362970           -9.87691
    203       2.00000          -0.361168           -9.82788
    204       2.00000          -0.351668           -9.56939
    205       2.00000          -0.341991           -9.30604
    206       2.00000          -0.330871           -9.00346
    207       2.00000          -0.324451           -8.82877
    208       2.00000          -0.316562           -8.61408
    209       2.00000          -0.316424           -8.61035
    210       2.00000          -0.305953           -8.32541
    211       2.00000          -0.288655           -7.85470
    212       2.00000          -0.286410           -7.79361
    213       2.00000          -0.284974           -7.75453
    214       2.00000          -0.280104           -7.62202
    215       2.00000          -0.279157           -7.59624
    216       2.00000          -0.277289           -7.54542
    217       2.00000          -0.276225           -7.51647
    218       2.00000          -0.275380           -7.49347
    219       2.00000          -0.273730           -7.44858
    220       2.00000          -0.270374           -7.35725
    221       2.00000          -0.265371           -7.22111
    222       2.00000          -0.263746           -7.17690
    223       2.00000          -0.263358           -7.16633
    224       2.00000          -0.257799           -7.01507
    225       2.00000          -0.224249           -6.10214
    226       2.00000          -0.215235           -5.85684
    227       2.00000          -0.212999           -5.79599
    228       0.00000          -0.164725           -4.48239
    229       0.00000          -0.152908           -4.16085
    230       0.00000          -0.135253           -3.68042
    231       0.00000          -0.129912           -3.53508
    232       0.00000          -0.128977           -3.50964
    233       0.00000          -0.126193           -3.43389
    234       0.00000          -0.115865           -3.15285
    235       0.00000          -0.114858           -3.12544
    236       0.00000          -0.082000           -2.23133
    237       0.00000          -0.037279           -1.01443
    238       0.00000          -0.030396           -0.82713
    239       0.00000          -0.002860           -0.07782
    240       0.00000           0.021872            0.59518
    241       0.00000           0.025814            0.70243
    242       0.00000           0.027243            0.74131
    243       0.00000           0.057529            1.56544
    244       0.00000           0.089276            2.42931
    245       0.00000           0.102433            2.78734
    246       0.00000           0.111545            3.03529
    247       0.00000           0.118583            3.22682
    248       0.00000           0.122828            3.34233
    249       0.00000           0.125159            3.40576
    250       0.00000           0.125854            3.42467
    251       0.00000           0.137532            3.74243
    252       0.00000           0.151753            4.12940
    253       0.00000           0.160299            4.36197
    254       0.00000           0.171173            4.65786
    255       0.00000           0.176966            4.81548
    256       0.00000           0.189688            5.16168
    257       0.00000           0.191787            5.21880
    258       0.00000           0.198563            5.40317
    259       0.00000           0.219970            5.98570
    260       0.00000           0.231891            6.31009
    261       0.00000           0.247581            6.73701
    262       0.00000           0.258027            7.02127
    263       0.00000           0.267167            7.26997
    264       0.00000           0.280428            7.63083
    265       0.00000           0.281457            7.65883
[...]
  |                x                y                z                |
  |                                                                   |
  |  x         0.00013225       0.00000824       0.00000729           |
  |  y         0.00000824       0.00000354       0.00002301           |
  |  z         0.00000729       0.00002301       0.00002058           |
  |                                                                   |
  |  Pressure:      -0.00005212   [eV/A**3]                           |
  |                                                                   |
  +-------------------------------------------------------------------+

 * Warning: Stress tensor is anisotropic. Be aware that pressure is an isotropic quantity.


  Leaving Libmbd.

  Timings for VdW correction (Tkatchenko-Scheffler 2009 or later):
  | CPU time:        5.450 s, Wall clock time:        5.451 s.
  Removing unitary transformations (pure translations, rotations) from forces on atoms.
  Atomic forces before filtering:
  | Net force on center of mass :   0.286801E-04  0.206526E-03 -0.384508E-03 eV/A
  Atomic forces after filtering:
  | Net force on center of mass :  -0.653343E-18 -0.222137E-17 -0.174225E-18 eV/A

  Energy and forces in a compact form:
  | Total energy uncorrected      :         -0.108791111540781E+07 eV
  | Total energy corrected        :         -0.108791111620546E+07 eV  <-- do not rely on this value for anything but (periodic) metals
  | Electronic free energy        :         -0.108791111700310E+07 eV
  Total atomic forces (unitary forces cleaned) [eV/Ang]:
  |    1          0.415787811949959E-02         -0.518633205232394E-02          0.205498156680944E-02
  |    2         -0.492582357518732E-02          0.544026863135969E-03         -0.144608039490417E-02
  |    3         -0.283346587679983E-02         -0.403359512594161E-02          0.101507418846173E-02
  |    4         -0.904974066636138E-03          0.597344926151524E-02          0.102411742566589E-03
  |    5          0.297949963888743E-02         -0.864356376509257E-03          0.463528982276644E-03
  |    6         -0.171384422814247E-02          0.474372693813952E-02          0.752601449770250E-03
  |    7          0.146384237206820E-02         -0.489315709317575E-02         -0.668127699524071E-03
  |    8         -0.166597390711972E-02          0.672435926014872E-02         -0.573099528947108E-03
  |    9         -0.649008940487470E-03         -0.238515529835340E-02          0.383197737085825E-03
  |   10          0.158366836790480E-02         -0.246831723552504E-02         -0.878602907522300E-03
  |   11          0.241867077860180E-02          0.159273853224417E-02          0.223316952571942E-03
  |   12          0.895313174111194E-04          0.252612326645373E-03         -0.142920208864477E-02

  ------------------------------------ 
  Start decomposition of the XC Energy 
  ------------------------------------ 
  X and C from original XC functional choice 
  Hartree-Fock Energy :          0.000000000 Ha              0.000000000 eV
  X Energy            :      -1261.088428298 Ha         -34315.962110919 eV
  C Energy            :        -23.234930675 Ha           -632.254632419 eV
  Total XC Energy     :      -1284.323358973 Ha         -34948.216743338 eV
  ------------------------------------ 
  LDA X and C from self-consistent density 
  X Energy LDA        :      -1197.515609693 Ha         -32586.057700101 eV
  C Energy LDA        :        -42.067857534 Ha          -1144.724646441 eV
  ------------------------------------ 
  End decomposition of the XC Energy 
  ------------------------------------ 

------------------------------------------------------------
  Relaxation / MD: End force evaluation.       :  max(cpu_time)    wall_clock(cpu1)
  | Time for this force evaluation             :      320.496 s         320.748 s

------------------------------------------------------------
  Geometry optimization: Attempting to predict improved coordinates.

  +-------------------------------------------------------------------+
  | Generalized derivatives on lattice vectors [eV/A]                 |
  +-------------------------------------------------------------------+
  |lattice_vector       0.00595294       0.00037096       0.00032799  |
  |lattice_vector       0.00036406       0.00015629       0.00101628  |
  |lattice_vector       0.00025292       0.00079852       0.00071446  |
  +-------------------------------------------------------------------+
  | Forces on lattice vectors cleaned from atomic contributions [eV/A]|
  +-------------------------------------------------------------------+
  |lattice_vector      -0.00595294      -0.00037096      -0.00032799  |
  |lattice_vector      -0.00036406      -0.00015629      -0.00101628  |
  |lattice_vector      -0.00025292      -0.00079852      -0.00071446  |
  +-------------------------------------------------------------------+
  Symmetrized total atomic cartesian forces [eV/Ang]:
  |   1     0.4157878119E-02    -0.5186332052E-02     0.2054981567E-02
  |   2    -0.4925823575E-02     0.5440268631E-03    -0.1446080395E-02
  |   3    -0.2833465877E-02    -0.4033595126E-02     0.1015074188E-02
  |   4    -0.9049740666E-03     0.5973449262E-02     0.1024117426E-03
  |   5     0.2979499639E-02    -0.8643563765E-03     0.4635289823E-03
  |   6    -0.1713844228E-02     0.4743726938E-02     0.7526014498E-03
  |   7     0.1463842372E-02    -0.4893157093E-02    -0.6681276995E-03
  |   8    -0.1665973907E-02     0.6724359260E-02    -0.5730995289E-03
  |   9    -0.6490089405E-03    -0.2385155298E-02     0.3831977371E-03
  |  10     0.1583668368E-02    -0.2468317236E-02    -0.8786029075E-03
  |  11     0.2418670779E-02     0.1592738532E-02     0.2233169526E-03
  |  12     0.8953131741E-04     0.2526123266E-03    -0.1429202089E-02
  +-------------------------------------------------------------------+
  | Symmetrized forces on lattice vectors cleaned from symmetrized
  | atomic contributions [eV/A]|
  +-------------------------------------------------------------------+
  |lattice_vector      -0.00595294       0.00000000       0.00000000  |
  |lattice_vector       0.00000000      -0.00015629       0.00000000  |
  |lattice_vector       0.00000000       0.00000000      -0.00071446  |
  +-------------------------------------------------------------------+
  Removing unitary transformations (pure translations, rotations) from forces on atoms.
  Atomic forces before filtering:
  | Net force on center of mass :  -0.100179E-17 -0.570586E-17  0.174225E-18 eV/A
  Atomic forces after filtering:
  | Net force on center of mass :   0.490007E-18 -0.374583E-17  0.174225E-18 eV/A
  Net remaining forces (excluding translations, rotations) in present geometry:
  || Forces on atoms   || =   0.672436E-02 eV/A.
  || Forces on lattice || =   0.595294E-02 eV/A^3.
  Maximum force component is  0.672436E-02 eV/A.
  Present geometry is converged.

  Symmetry-reduced parameters:
  | atomic   1          0.501582861691896E+00
  | atomic   2          0.172403234347238E-02
  | atomic   3          0.157273243420442E-02
  | atomic   4          0.176183573583492E-02
  | atomic   5          0.171288360463713E-02
  | atomic   6          0.501802252666050E+00
  | atomic   7          0.179737026841740E-02
  | atomic   8          0.501742535530784E+00
  | atomic   9          0.161821237346177E-02
  | atomic  10          0.501697942448148E+00
  | atomic  11          0.501601666784794E+00
  | atomic  12          0.501792303374258E+00
  | atomic  13          0.613764977785900E+00
  | atomic  14          0.120090036966077E+00
  | atomic  15          0.405453786053613E+00
  | atomic  16          0.889631216849023E+00
  | atomic  17          0.883256001321708E+00
  | atomic  18          0.905401937168577E+00
  | atomic  19          0.113696101783571E+00
  | atomic  20          0.383394914379138E+00
  | atomic  21          0.598025481227992E+00
  | atomic  22          0.389722843325279E+00
  | atomic  23          0.620029494606150E+00
  | atomic  24          0.979556231073466E-01
  | atomic  25          0.389695780277654E+00
  | atomic  26          0.883299168955456E+00
  | atomic  27          0.598004685648335E+00
  | atomic  28          0.113695785337798E+00
  | atomic  29          0.120167670049084E+00
  | atomic  30          0.979347871703419E-01
  | atomic  31          0.889570048600306E+00
  | atomic  32          0.620125989712516E+00
  | atomic  33          0.405461916557322E+00
  | atomic  34          0.613810311840135E+00
  | atomic  35          0.383282679088072E+00
  | atomic  36          0.905403350794699E+00
  | lattice  1          0.583642167072391E+01
  | lattice  2          0.594707158665276E+01
  | lattice  3          0.756892975595387E+01
  Symmetry-reduced forces:
  | atomic   1          0.242671299608762E-01
  | atomic   2         -0.308434879873222E-01
  | atomic   3          0.155540111289607E-01
  | atomic   4         -0.287491834603860E-01
  | atomic   5          0.323536670013175E-02
  | atomic   6         -0.109452809304917E-01
  | atomic   7         -0.165373016466112E-01
  | atomic   8         -0.239880789655484E-01
  | atomic   9          0.768302522954873E-02
  | atomic  10         -0.528181025395830E-02
  | atomic  11          0.355245303774692E-01
  | atomic  12          0.775147285671342E-03
  | atomic  13          0.173896162603167E-01
  | atomic  14         -0.514038924748034E-02
  | atomic  15          0.350841830670070E-02
  | atomic  16         -0.100027175933758E-01
  | atomic  17          0.282112836886488E-01
  | atomic  18          0.569638750754007E-02
  | atomic  19          0.854360134286274E-02
  | atomic  20         -0.290999555178539E-01
  | atomic  21         -0.505701162570475E-02
  | atomic  22         -0.972332621437410E-02
  | atomic  23          0.399902458944758E-01
  | atomic  24         -0.433775007777091E-02
  | atomic  25         -0.378788984475463E-02
  | atomic  26         -0.141846893045918E-01
  | atomic  27          0.290039675464309E-02
  | atomic  28          0.924295638167952E-02
  | atomic  29         -0.146792592982362E-01
  | atomic  30         -0.665008369041312E-02
  | atomic  31          0.141163825465782E-01
  | atomic  32          0.947213007007635E-02
  | atomic  33          0.169027032733071E-02
  | atomic  34          0.522542521146718E-03
  | atomic  35          0.150230359023095E-02
  | atomic  36         -0.108175302160149E-01
  | lattice  1         -0.595293608714271E-02
  | lattice  2         -0.156289578845621E-03
  | lattice  3         -0.714464039294541E-03
------------------------------------------------------------
  Final atomic structure:
                         x [A]             y [A]             z [A]
  lattice_vector         5.83642167        0.00000000        0.00000000
  lattice_vector         0.00000000        5.94707159        0.00000000
  lattice_vector         0.00000000        0.00000000        7.56892976

            atom        -2.90897259        0.01025294        0.01190390  Pd
            atom         0.01028282        0.01018664       -3.77082375  Pd
            atom         0.01049021       -2.96317281        0.01224814  Pd
            atom        -2.90830093       -2.96401057       -3.77089906  Pd
            atom        -2.25423045        0.71418405        3.06885123  Se
            atom        -0.64415876       -0.69428492       -0.71600609  Se
            atom         0.66357839        2.28007700       -3.04251690  Se
            atom         2.27458685       -2.25971180        0.74141923  Se
            atom         2.27442890       -0.69402820       -3.04267430  Se
            atom         0.66357655        0.71464574        0.74126152  Se
            atom        -0.64451576       -2.25913793        3.06891277  Se
            atom        -2.25396586        2.27940953       -0.71599539  Se

  Fractional coordinates:
                         L1                L2                L3
       atom_frac        -0.49841714        0.00172403        0.00157273  Pd
       atom_frac         0.00176184        0.00171288       -0.49819775  Pd
       atom_frac         0.00179737       -0.49825746        0.00161821  Pd
       atom_frac        -0.49830206       -0.49839833       -0.49820770  Pd
       atom_frac        -0.38623502        0.12009004        0.40545379  Se
       atom_frac        -0.11036878       -0.11674400       -0.09459806  Se
       atom_frac         0.11369610        0.38339491       -0.40197452  Se
       atom_frac         0.38972284       -0.37997051        0.09795562  Se
       atom_frac         0.38969578       -0.11670083       -0.40199531  Se
       atom_frac         0.11369579        0.12016767        0.09793479  Se
       atom_frac        -0.11042995       -0.37987401        0.40546192  Se
       atom_frac        -0.38618969        0.38328268       -0.09459665  Se
------------------------------------------------------------

------------------------------------------------------------------------------
  Final output of selected total energy values:

  The following output summarizes some interesting total energy values
  at the end of a run (AFTER all relaxation, molecular dynamics, etc.).

  | Total energy of the DFT / Hartree-Fock s.c.f. calculation      :       -1087911.115407815 eV
  | Final zero-broadening corrected energy (caution - metals only) :       -1087911.116205460 eV
  | For reference only, the value of 1 Hartree used in FHI-aims is :             27.211384500 eV
  | For reference only, the overall average (free atom contribution
  | + realspace contribution) of the electrostatic potential after
  | s.c.f. convergence is                                          :            -16.863202589 eV

  Before relying on these values, please be sure to understand exactly which
  total energy value is referred to by a given number. Different objects may
  all carry the same name 'total energy'. Definitions:

  Total energy of the DFT / Hartree-Fock s.c.f. calculation:
  | Note that this energy does not include ANY quantities calculated after the
  | s.c.f. cycle, in particular not ANY RPA, MP2, etc. many-body perturbation terms.

  Final zero-broadening corrected energy:
  | For metallic systems only, a broadening of the occupation numbers at the Fermi
  | level can be extrapolated back to zero broadening by an electron-gas inspired
  | formula. For all systems that are not real metals, this value can be
  | meaningless and should be avoided.

------------------------------------------------------------------------------
  Methods described in the following list of references were used in this FHI-aims run.
  If you publish the results, please make sure to cite these reference if they apply.
  FHI-aims is an academic code, and for our developers (often, Ph.D. students
  and postdocs), scientific credit in the community is essential.
  Thank you for helping us!

  For any use of FHI-aims, please cite:

    Volker Blum, Ralf Gehrke, Felix Hanke, Paula Havu, Ville Havu,
    Xinguo Ren, Karsten Reuter, and Matthias Scheffler
    'Ab initio molecular simulations with numeric atom-centered orbitals'
    Computer Physics Communications 180, 2175-2196 (2009)
    http://dx.doi.org/10.1016/j.cpc.2009.06.022


  For the analytical stress tensor used in your run, please cite:

    Franz Knuth, Christian Carbogno, Viktor Atalla, Volker Blum, Matthias Scheffler
    'All-electron formalism for total energy strain derivatives and
    stress tensor components for numeric atom-centered orbitals'
    Computer Physics Communications 190, 33-50 (2015).
    http://dx.doi.org/10.1016/j.cpc.2015.01.003


  The provided symmetry information was generated with SPGlib:

    Atsushi Togo, Yusuke Seto, Dimitar Pashov
    SPGlib 1.7.3 obtained from http://spglib.sourceforge.net
    Copyright (C) 2008 Atsushi Togo


  The ELSI infrastructure was used in your run to solve the Kohn-Sham electronic structure.
  Please check out http://elsi-interchange.org to learn more.
  If scalability is important for your project, please acknowledge ELSI by citing:

    V. W-z. Yu, F. Corsetti, A. Garcia, W. P. Huhn, M. Jacquelin, W. Jia,
    B. Lange, L. Lin, J. Lu, W. Mi, A. Seifitokaldani, A. Vazquez-Mayagoitia,
    C. Yang, H. Yang, and V. Blum
    'ELSI: A unified software interface for Kohn-Sham electronic structure solvers'
    Computer Physics Communications 222, 267-285 (2018).
    http://dx.doi.org/10.1016/j.cpc.2017.09.007


  For the real-space grid partitioning and parallelization used in this calculation, please cite:

    Ville Havu, Volker Blum, Paula Havu, and Matthias Scheffler,
    'Efficient O(N) integration for all-electron electronic structure calculation'
    'using numerically tabulated basis functions'
    Journal of Computational Physics 228, 8367-8379 (2009).
    http://dx.doi.org/10.1016/j.jcp.2009.08.008

  Of course, there are many other important community references, e.g., those cited in the
  above references. Our list is limited to references that describe implementations in the
  FHI-aims code. The reason is purely practical (length of this list) - please credit others as well.

------------------------------------------------------------
          Leaving FHI-aims.
          Date     :  20200420, Time     :  221143.123

          Computational steps:
          | Number of self-consistency cycles          :          276
          | Number of SCF (re)initializations          :           15
          | Number of relaxation steps                 :           14

          Detailed time accounting                     :  max(cpu_time)    wall_clock(cpu1)
          | Total time                                 :     5462.179 s        5464.335 s
          | Preparation time                           :        0.557 s           0.661 s
          | Boundary condition initalization           :        1.920 s           1.911 s
          | Grid partitioning                          :        5.221 s           5.221 s
          | Preloading free-atom quantities on grid    :       16.049 s          16.052 s
          | Free-atom superposition energy             :        2.043 s           2.043 s
          | Total time for integrations                :      768.138 s         768.155 s
          | Total time for solution of K.-S. equations :      552.031 s         552.269 s
          | Total time for EV reorthonormalization     :        9.267 s           8.658 s
          | Total time for density & force components  :     3183.939 s        3184.071 s
          | Total time for mixing & preconditioning    :      191.955 s         192.007 s
          | Total time for Hartree multipole update    :        1.215 s           1.236 s
          | Total time for Hartree multipole sum       :      643.728 s         643.748 s
          | Total time for total energy evaluation     :        0.783 s           0.859 s
          | Total time for scaled ZORA corrections     :        0.000 s           0.000 s
          | Total time for vdW correction              :       82.068 s          82.083 s

          Partial memory accounting:
          | Residual value for overall tracked memory usage across tasks:     0.000000 MB (should be 0.000000 MB)
          | Peak values for overall tracked memory usage:
          |   Minimum:      100.996 MB (on task 20 after allocating d_wave)
          |   Maximum:      105.878 MB (on task 13 after allocating d_wave)
          |   Average:      103.613 MB
          | Largest tracked array allocation:
          |   Minimum:       27.293 MB (KS_eigenvector_complex on task  0)
          |   Maximum:       29.393 MB (KS_eigenvector_complex on task  1)
          |   Average:       28.431 MB
          Note:  These values currently only include a subset of arrays which are explicitly tracked.
          The "true" memory usage will be greater.

          Have a nice day.
------------------------------------------------------------
