------------------------------------------------------------
          Invoking FHI-aims ...

          When using FHI-aims, please cite the following reference:

          Volker Blum, Ralf Gehrke, Felix Hanke, Paula Havu,
          Ville Havu, Xinguo Ren, Karsten Reuter, and Matthias Scheffler,
          'Ab Initio Molecular Simulations with Numeric Atom-Centered Orbitals',
          Computer Physics Communications 180, 2175-2196 (2009)

          For any questions about FHI-aims, please visit the aimsclub website
          with its forums and wiki. Contributions to both the forums and the
          wiki are warmly encouraged - they are for you, and everyone is welcome there.

------------------------------------------------------------



  Date     :  20200420, Time     :  113459.267
  Time zero on CPU 1             :   0.760860000000000E-01  s.
  Internal wall clock time zero  :           356614499.267  s.

  FHI-aims created a unique identifier for this run for later identification
  aims_uuid : 35A60991-190E-40E4-AD90-B63243EA4A5F

  Build configuration of the current instance of FHI-aims
  -------------------------------------------------------
  FHI-aims version      : 200112
  Commit number         : 23daeca3f
  CMake host system     : Linux-3.10.0-693.21.1.el7.x86_64
  CMake version         : 3.13.3
  Fortran compiler      : /sw/installed/impi/2018.4.274-iccifort-2019.1.144-GCC-8.2.0-2.31.1/bin64/mpiifort (Intel) version 19.0.0.20181018
  Fortran compiler flags: -O3 -ip -fp-model precise
  C compiler            : /sw/installed/impi/2018.4.274-iccifort-2019.1.144-GCC-8.2.0-2.31.1/bin64/mpiicc (Intel) version 19.0.0.20181018
  C compiler flags      : -O3 -ip -fp-model precise
  Architecture          :
  Using MPI
  Using Scalapack
  Using C files
  Using LibXC
  Using SPGlib
  Using i-PI
  Using RLSY
  Linking against: /sw/installed/imkl/2019.1.144-iimpi-2019a/mkl/lib/intel64/libmkl_intel_lp64.so
                   /sw/installed/imkl/2019.1.144-iimpi-2019a/mkl/lib/intel64/libmkl_sequential.so
                   /sw/installed/imkl/2019.1.144-iimpi-2019a/mkl/lib/intel64/libmkl_core.so
                   /sw/installed/imkl/2019.1.144-iimpi-2019a/mkl/lib/intel64/libmkl_blacs_intelmpi_lp64.so
                   /sw/installed/imkl/2019.1.144-iimpi-2019a/mkl/lib/intel64/libmkl_scalapack_lp64.so

  Using       24 parallel tasks.
  Task        0 on host taurusi6461.taurus.hrsk.tu-dresden.de reporting.
  Task        1 on host taurusi6461.taurus.hrsk.tu-dresden.de reporting.
  Task        2 on host taurusi6461.taurus.hrsk.tu-dresden.de reporting.
  Task        3 on host taurusi6461.taurus.hrsk.tu-dresden.de reporting.
  Task        4 on host taurusi6461.taurus.hrsk.tu-dresden.de reporting.
  Task        5 on host taurusi6461.taurus.hrsk.tu-dresden.de reporting.
  Task        6 on host taurusi6461.taurus.hrsk.tu-dresden.de reporting.
  Task        7 on host taurusi6461.taurus.hrsk.tu-dresden.de reporting.
  Task        8 on host taurusi6461.taurus.hrsk.tu-dresden.de reporting.
  Task        9 on host taurusi6461.taurus.hrsk.tu-dresden.de reporting.
  Task       10 on host taurusi6461.taurus.hrsk.tu-dresden.de reporting.
  Task       11 on host taurusi6461.taurus.hrsk.tu-dresden.de reporting.
  Task       12 on host taurusi6461.taurus.hrsk.tu-dresden.de reporting.
  Task       13 on host taurusi6461.taurus.hrsk.tu-dresden.de reporting.
  Task       14 on host taurusi6461.taurus.hrsk.tu-dresden.de reporting.
  Task       15 on host taurusi6461.taurus.hrsk.tu-dresden.de reporting.
  Task       16 on host taurusi6461.taurus.hrsk.tu-dresden.de reporting.
  Task       17 on host taurusi6461.taurus.hrsk.tu-dresden.de reporting.
  Task       18 on host taurusi6461.taurus.hrsk.tu-dresden.de reporting.
  Task       19 on host taurusi6461.taurus.hrsk.tu-dresden.de reporting.
  Task       20 on host taurusi6461.taurus.hrsk.tu-dresden.de reporting.
  Task       21 on host taurusi6461.taurus.hrsk.tu-dresden.de reporting.
  Task       22 on host taurusi6461.taurus.hrsk.tu-dresden.de reporting.
  Task       23 on host taurusi6461.taurus.hrsk.tu-dresden.de reporting.

  Performing system and environment tests:
  | Environment variable OMP_NUM_THREADS correctly set to 1.
  | Maximum stacksize for task 0: unlimited
  | Maximum stacksize for task 1: unlimited
  | Maximum stacksize for task 2: unlimited
  | Maximum stacksize for task 3: unlimited
  | Maximum stacksize for task 4: unlimited
  | Maximum stacksize for task 5: unlimited
  | Maximum stacksize for task 6: unlimited
  | Maximum stacksize for task 7: unlimited
  | Maximum stacksize for task 8: unlimited
  | Maximum stacksize for task 9: unlimited
  | Maximum stacksize for task 10: unlimited
  | Maximum stacksize for task 11: unlimited
  | Maximum stacksize for task 12: unlimited
  | Maximum stacksize for task 13: unlimited
  | Maximum stacksize for task 14: unlimited
  | Maximum stacksize for task 15: unlimited
  | Maximum stacksize for task 16: unlimited
  | Maximum stacksize for task 17: unlimited
  | Maximum stacksize for task 18: unlimited
  | Maximum stacksize for task 19: unlimited
  | Maximum stacksize for task 20: unlimited
  | Maximum stacksize for task 21: unlimited
  | Maximum stacksize for task 22: unlimited
  | Maximum stacksize for task 23: unlimited
  | Current stacksize for task 0: unlimited
  | Current stacksize for task 1: unlimited
  | Current stacksize for task 2: unlimited
  | Current stacksize for task 3: unlimited
  | Current stacksize for task 4: unlimited
  | Current stacksize for task 5: unlimited
  | Current stacksize for task 6: unlimited
  | Current stacksize for task 7: unlimited
  | Current stacksize for task 8: unlimited
  | Current stacksize for task 9: unlimited
  | Current stacksize for task 10: unlimited
  | Current stacksize for task 11: unlimited
  | Current stacksize for task 12: unlimited
  | Current stacksize for task 13: unlimited
  | Current stacksize for task 14: unlimited
  | Current stacksize for task 15: unlimited
  | Current stacksize for task 16: unlimited
  | Current stacksize for task 17: unlimited
  | Current stacksize for task 18: unlimited
  | Current stacksize for task 19: unlimited
  | Current stacksize for task 20: unlimited
  | Current stacksize for task 21: unlimited
  | Current stacksize for task 22: unlimited
  | Current stacksize for task 23: unlimited
  | Checking for scalapack...
  | Testing pdtran()...
  | All pdtran() tests passed.

  Obtaining array dimensions for all initial allocations:
  
  -----------------------------------------------------------------------
  Parsing control.in (first pass over file, find array dimensions only).
  The contents of control.in will be repeated verbatim below
  unless switched off by setting 'verbatim_writeout .false.' .
  in the first line of control.in .
  -----------------------------------------------------------------------
  
  #===============================================================================
  # FHI-aims file: ./control.in
  # Created using the Atomic Simulation Environment (ASE)
  # Thu Apr  2 11:27:09 2020
  #===============================================================================
  xc                                 pbe
  # include_spin_orbit
  # vdw_correction_hirshfeld
  many_body_dispersion_nl 	 beta=0.81
  spin                               none
  k_grid 	 	 9 9 8
  relativistic                       atomic_zora scalar
  energy_tolerance 1e-2
  harmonic_length_scale  0.015
  ### SCF settings
  adjust_scf 	 always 	 3
  # frozen_core_scf 	 .true.
  # charge_mix_param  0.05
  # occupation_type 	 gaussian 	 0.01
  # sc_accuracy_eev   1E-3 	 	 # sum of eigenvalues convergence
  # sc_accuracy_etot  1E-6 	 	 # total energy convergence
  # sc_accuracy_rho   1E-3 	 	 # electron density convergence
  # elsi_restart 	 read_and_write 	 1000
  ### geometry optimisation section
  relax_geometry 	 bfgs 	 1E-2
  relax_unit_cell 	 full
  #===============================================================================
  
  ################################################################################
  #
  #  FHI-aims code project
  # Volker Blum, Fritz Haber Institute Berlin, 2009
  #
  #  Suggested "tight" defaults for Pd atom (to be pasted into control.in file)
  #
  ################################################################################
    species        Pd
  #     global species definitions
      nucleus             46
      mass                106.42
  #
      l_hartree           6
  #
      cut_pot             4.0  2.0  1.0
      basis_dep_cutoff    1e-4
  #
      radial_base         62 7.0
      radial_multiplier   2
      angular_grids specified
        division   0.3627   50
        division   0.7349  110
        division   1.0624  194
        division   1.2496  302
        division   1.6740  434
  #      division   2.0126  590
  #      division   2.0830  770
  #      division   2.7936 1202
  #       outer_grid  974
        outer_grid  434
  ################################################################################
  #
  #  Definition of "minimal" basis
  #
  ################################################################################
  #     valence basis states
      valence      5  s   1.
      valence      4  p   6.
      valence      4  d   9.
  #     ion occupancy
      ion_occ     5  s   0.
      ion_occ     4  p   6.
      ion_occ     4  d   8.
  ################################################################################
  #
  #  Suggested additional basis functions. For production calculations,
  #  uncomment them one after another (the most important basis functions are
  #  listed first).
  #
  #  Constructed for dimers: 2.0 A, 2.275 A, 2.75 A, 3.75 A
  #
  ################################################################################
  #  "First tier" - max. impr. -120.76  meV, min. impr. -5.71 meV
       ionic 5 p auto
       hydro 4 f 8
       hydro 5 g 10
       hydro 3 s 2.6
       hydro 3 d 2.5
  #  "Second tier" - max. impr. -5.00  meV, min. impr. -0.62 meV
  #     hydro 5 f 17.2
  #     hydro 6 h 14
  #     hydro 4 d 4
  #     hydro 5 f 7.6
  #     hydro 3 p 3.3
  #     hydro 4 s 9.4
  #  "Third tier" - max. impr. -0.54  meV, min. impr. -0.14 meV
  #     hydro 4 f 20
  #     hydro 5 g 12.8
  #     hydro 5 d 9.8
  #     hydro 6 h 15.2
  #     hydro 5 s 10
  #     hydro 6 p 9.8
  #  "Fourth tier" - max. impr. -0.15  meV, min. impr. -0.05 meV
  #     hydro 5 f 9.2
  #     hydro 2 s 5.6
  #     hydro 5 f 43.2
  #     hydro 5 d 13.2
  #     hydro 5 g 14
  #     hydro 4 p 4.7
  ################################################################################
  #
  #  FHI-aims code project
  # Volker Blum, Fritz Haber Institute Berlin, 2009
  #
  #  Suggested "tight" defaults for Se atom (to be pasted into control.in file)
  #
  ################################################################################
    species        Se
  #     global species definitions
      nucleus             34
      mass                78.96
  #
      l_hartree           6
  #
      cut_pot             4.0          2.0  1.0
      basis_dep_cutoff    1e-4
  #
      radial_base         55 7.0
      radial_multiplier   2
      angular_grids       specified
        division   0.0830  110
        division   0.1357  194
        division   0.7377  302
        division   0.8610  434
  #      division   0.9640  590
  #      division   1.0773  770
  #      division   2.5539  974
  #      outer_grid  974
        outer_grid  434
  ################################################################################
  #
  #  Definition of "minimal" basis
  #
  ################################################################################
  #     valence basis states
      valence      4  s   2.
      valence      4  p   4.
      valence      3  d  10.
  #     ion occupancy
      ion_occ      4  s   1.
      ion_occ      4  p   3.
      ion_occ      3  d  10.
  ################################################################################
  #
  #  Suggested additional basis functions. For production calculations,
  #  uncomment them one after another (the most important basis functions are
  #  listed first).
  #
  #  Constructed for dimers: 1.85 A, 2.15 A, 2.50 A, 3.00 A, 4.00 A
  #
  ################################################################################
  #  "First tier" - improvements: -336.21 meV to -36.85 meV
       hydro 3 d 4.3
       hydro 2 p 1.6
       hydro 4 f 7.2
       ionic 4 s auto
  #  "Second tier" - improvements: -14.39 meV to -1.49 meV
  #     hydro 5 g 10.4
  #     hydro 4 p 4.5
  #     hydro 4 d 6.2
  #     hydro 4 f 11.2
  #     hydro 1 s 0.65
  #     hydro 6 h 15.2
  #  "Third tier" - improvements: -0.46 meV and below
  #     hydro 5 g 14.4
  #     ionic 4 d auto
  #     hydro 4 f 22.4
  #     hydro 5 f 7.4
  #     hydro 5 p 8
  #     hydro 5 s 9.4
  #  "Fourth tier" - improvements: -0.12 meV and below
  #     hydro 5 d 11.6
  #     hydro 6 h 18
  #     hydro 4 p 4
  #     hydro 5 f 16
  #     hydro 4 s 3.9
  #
  #
  
  -----------------------------------------------------------------------
  Completed first pass over input file control.in .
  -----------------------------------------------------------------------
  
  
  -----------------------------------------------------------------------
  Parsing geometry.in (first pass over file, find array dimensions only).
  The contents of geometry.in will be repeated verbatim below
  unless switched off by setting 'verbatim_writeout .false.' .
  in the first line of geometry.in .
  -----------------------------------------------------------------------
  
  #
  # This is the geometry file that corresponds to the current relaxation step.
  # If you do not want this file to be written, set the "write_restart_geometry" flag to .false.
  #  aims_uuid : 28231714-8D35-4031-A94E-4A3AD9C52DD8
  #
  lattice_vector      5.84038782      0.00000000      0.00000000
  lattice_vector      0.00000000      5.95180497      0.00000000
  lattice_vector      0.00000000      0.00000000      7.50655324
  atom_frac       0.50116835      0.00078955      0.00066368 Pd
  atom_frac       0.00075564      0.00079376      0.50134378 Pd
  atom_frac       0.00085162      0.50118712      0.00069627 Pd
  atom_frac       0.50124367      0.50119891      0.50130859 Pd
  atom_frac       0.61286290      0.11895918      0.40369399 Se
  atom_frac       0.88985253      0.88346332      0.90395807 Se
  atom_frac       0.11251235      0.38306266      0.59877297 Se
  atom_frac       0.38946091      0.61933750      0.09829747 Se
  atom_frac       0.38950401      0.88346311      0.59878457 Se
  atom_frac       0.11255111      0.11893165      0.09831686 Se
  atom_frac       0.88987804      0.61930421      0.40369496 Se
  atom_frac       0.61287195      0.38302213      0.90398187 Se
  #
  # What follows is the current estimated Hessian matrix constructed by the BFGS algorithm.
  # This is NOT the true Hessian matrix of the system.
  # If you do not want this information here, switch it off using the "hessian_to_restart_geometry" keyword.
  #
  trust_radius             0.0122117393
  hessian_block                1       1           5.956723           0.025381          -2.247974           0.025381           6.33604
  hessian_block                1       2          -0.068564           0.521184           0.146750           0.387151           0.35555
  hessian_block                1       3          -0.019620           0.626726           0.156868          -0.070205          -0.24690
  hessian_block                1       4           0.544549           0.262338          -0.067041           0.201129          -0.38498
  hessian_block                1       5          -0.078571          -0.548255          -0.303054          -0.435522           0.13489
  hessian_block                1       6          -1.747981           0.117611           0.677752           0.432213          -0.39818
  hessian_block                1       7          -0.390813           0.248480           0.256075           0.117097           0.39304
  hessian_block                1       8          -0.252342          -0.645724           0.304122          -0.364901          -1.99290
  hessian_block                1       9          -0.121248           0.033125           0.206602          -0.363372          -0.30658
  hessian_block                1      10          -2.280594           0.773291           1.011887           0.118538          -0.27275
  hessian_block                1      11           0.118883          -0.520429          -0.246447           0.096326          -0.19009
  hessian_block                1      12          -0.094509          -0.893729           0.104459          -0.143835          -1.78009
  hessian_block                2       2           6.240441           0.255814           2.240550           0.255814           6.90692
  hessian_block                2       3           0.954464           0.600459           0.244158          -0.530159          -0.27111
  hessian_block                2       4           0.196806           0.541298           0.103329          -0.714709           0.40872
  hessian_block                2       5          -2.204444           0.256639          -0.777563           0.559996          -0.39664
  hessian_block                2       6          -0.497968          -0.304117          -0.115048          -0.167866          -0.93129
  hessian_block                2       7           0.111949          -0.653823          -0.316303          -0.228327          -1.83749
  hessian_block                2       8          -0.247971          -0.391952          -0.186808           0.167495          -0.31638
  hessian_block                2       9          -2.023463           0.325599          -1.009867           0.652654          -0.97118
  hessian_block                2      10           0.483286          -0.123753           0.080897           0.127352           0.61765
  hessian_block                2      11          -0.763096          -0.719426          -0.241965          -0.530515          -2.47539
  hessian_block                2      12          -0.615529          -0.173888          -0.064098          -0.112919           0.55768
  hessian_block                3       3           6.471683          -0.482668           2.459350          -0.482668           6.25614
  hessian_block                3       4           0.286522          -0.209022          -0.056032          -0.540794           0.38917
  hessian_block                3       5          -0.527799           0.117096          -0.345505          -0.015306           0.20573
  hessian_block                3       6          -0.817655           0.617803          -0.519104           0.038220          -1.82309
  hessian_block                3       7           0.199930          -0.031773           0.266954           0.224161          -0.07696
  hessian_block                3       8          -2.086565          -0.321238          -0.827772          -0.564139          -0.46685
  hessian_block                3       9          -0.312429           0.364007           0.134307          -0.066659          -0.10861
  hessian_block                3      10           0.435328           0.468280           0.140893           0.905225          -1.94908
  hessian_block                3      11          -0.606186           0.295961          -0.293321          -0.209532          -0.13185
  hessian_block                3      12          -2.411763          -0.218080          -1.065900          -0.515695          -0.12954
  hessian_block                4       4           5.919703           0.098369          -1.997346           0.098369           6.95089
  hessian_block                4       5          -0.431009           0.914923           0.365756           0.195189          -2.05281
  hessian_block                4       6          -0.122902           0.204798           0.019538          -0.238311          -0.58957
  hessian_block                4       7          -1.934336          -0.950294           0.660524          -0.273281          -0.60726
  hessian_block                4       8          -0.217792          -0.039473          -0.107224           0.118181          -0.48890
  hessian_block                4       9          -0.285429           0.603248           0.110916           0.064754          -2.44068
  hessian_block                4      10          -0.393970          -0.348038          -0.125415          -0.268974           0.64696
  hessian_block                4      11          -1.897286           0.061201           0.941421          -0.625766          -0.61893
  hessian_block                4      12          -0.098947           0.509638           0.080501           0.335225           0.43442
  hessian_block                5       5           5.332744          -0.589520          -1.311479          -0.589520           5.83379
  hessian_block                5       6           0.326161          -0.031679          -0.352292           0.057024          -0.08831
  hessian_block                5       7          -0.540706           0.919001           0.062700          -0.973147           0.50932
  hessian_block                5       8           0.016320          -0.000380           0.341648           0.330169          -0.25208
  hessian_block                5       9          -1.334518          -0.351566           1.733108          -0.360363          -1.55730
  hessian_block                5      10          -0.090816           0.337983           0.509456           0.325228           0.26996
  hessian_block                5      11           0.750612          -0.738839           0.016653           0.741841          -0.68414
  hessian_block                5      12           0.347936           0.150643          -0.526538          -0.271636          -0.27539
  hessian_block                6       6           5.314161           0.307572           1.722170           0.307572           5.93027
  hessian_block                6       7           0.165145           0.038861           0.071160           0.167606           0.25299
  hessian_block                6       8           0.058161           0.397636           0.092120           0.312617           0.44499
  hessian_block                6       9           0.081529           0.169488           0.095438           0.054947           0.78523
  hessian_block                6      10          -1.691367          -1.185419          -2.576510          -1.209632          -2.16124
  hessian_block                6      11           0.044025           0.133108          -0.210617          -0.093451           0.58549
  hessian_block                6      12           0.454603           0.017475           0.051768          -0.144078          -0.36024
  hessian_block                7       7           5.360113           0.845801           0.936399           0.845801           5.97676
  hessian_block                7       8          -0.133447          -0.007161          -0.090114           0.007674          -0.07509
  hessian_block                7       9           0.392058           0.559187          -0.211035          -0.412382          -0.55521
  hessian_block                7      10           0.128723          -0.364680          -0.357957           0.110663          -0.61920
  hessian_block                7      11          -1.832709           0.060728          -1.506732           0.254860          -1.82585
  hessian_block                7      12           0.040002          -0.127985           0.461245          -0.377068           0.11199
  hessian_block                8       8           4.655649          -0.017935          -0.926464          -0.017935           5.68524
  hessian_block                8       9           0.267783          -0.458725          -0.191867           0.255036           0.41465
  hessian_block                8      10          -0.000718          -0.308341           0.073236          -0.412596          -0.49025
  hessian_block                8      11           0.314809          -0.171099          -0.112773           0.192698           0.71619
  hessian_block                8      12          -0.807978           0.949002           1.706400           0.991088          -1.53158
  hessian_block                9       9           5.018230          -0.532138          -0.793478          -0.532138           6.26629
  hessian_block                9      10          -0.056438           0.403242          -0.270923          -0.281752          -0.27391
  hessian_block                9      11          -0.200599           0.583963           0.055254          -0.591400           0.90555
  hessian_block                9      12           0.140435          -0.279684           0.666565           0.160929          -0.51119
  hessian_block               10      10           5.545983           0.548741           1.478517           0.548741           6.62038
  hessian_block               10      11          -0.072505          -0.007730           0.414685           0.092112          -0.66770
  hessian_block               10      12          -0.441002           0.044935           0.011658          -0.293420          -0.07375
  hessian_block               11      11           5.521070           0.750427           0.762527           0.750427           6.34984
  hessian_block               11      12           0.188890          -0.077600          -0.500566           0.272137          -0.31608
  hessian_block               12      12           4.863774           0.099272          -0.925495           0.099272           5.52082
  hessian_block_lv             1       1          25.807797          -2.539220           5.089737          -2.539220          23.72845
  hessian_block_lv_atom        1       1           0.096390           0.229824          -0.000063          -0.497276          -0.69688
  hessian_block_lv_atom        1       2          -0.849050          -1.258530          -0.236835           0.347854           0.06724
  hessian_block_lv_atom        1       3          -0.770910          -1.250201          -0.209947           0.433727           0.59591
  hessian_block_lv_atom        1       4          -0.106033          -0.123426          -0.058008           1.256423           1.28826
  hessian_block_lv_atom        1       5           0.777864           0.925262           0.484927           0.002364          -0.44580
  hessian_block_lv_atom        1       6           0.022154           0.237358          -0.257952          -0.791766          -0.47160
  hessian_block_lv_atom        1       7          -0.847782          -1.280581           0.012876          -1.325272          -1.16693
  hessian_block_lv_atom        1       8           0.000504           0.498082          -0.233469          -0.306424          -0.47054
  hessian_block_lv_atom        1       9           0.007485           0.249850          -0.229621          -0.780794          -0.52264
  hessian_block_lv_atom        1      10          -0.112874          -0.355195           0.254574           0.827985           0.25038
  hessian_block_lv_atom        1      11           1.030109           1.502318           0.030883           0.491440           0.77019
  hessian_block_lv_atom        1      12           0.752140           0.625238           0.442634           0.341738           0.80240
  symmetry_n_params 39 3 36
  symmetry_params a1 b2 c3 x0 x1 x2 x3 x4 x5 x6 x7 x8 x9 x10 x11 x12 x13 x14 x15 x16 x17 x18 x19 x20 x21 x22 x23 x24 x25 x26 x27 x28 x
  symmetry_lv a1 , 0 , 0
  symmetry_lv 0 , b2 , 0
  symmetry_lv 0 , 0 , c3
  symmetry_frac x0 , x1 , x2
  symmetry_frac x3 , x4 , x5
  symmetry_frac x6 , x7 , x8
  symmetry_frac x9 , x10 , x11
  symmetry_frac x12 , x13 , x14
  symmetry_frac x15 , x16 , x17
  symmetry_frac x18 , x19 , x20
  symmetry_frac x21 , x22 , x23
  symmetry_frac x24 , x25 , x26
  symmetry_frac x27 , x28 , x29
  symmetry_frac x30 , x31 , x32
  symmetry_frac x33 , x34 , x35
  
  -----------------------------------------------------------------------
  Completed first pass over input file geometry.in .
  -----------------------------------------------------------------------
  

  Basic array size parameters:
  | Number of species                 :        2
  | Number of atoms                   :       12
  | Number of lattice vectors         :        3
  | Max. basis fn. angular momentum   :        4
  | Max. atomic/ionic basis occupied n:        5
  | Max. number of basis fn. types    :        3
  | Max. radial fns per species/type  :       10
  | Max. logarithmic grid size        :     1444
  | Max. radial integration grid size :      125
  | Max. angular integration grid size:      434
  | Max. angular grid division number :        8
  | Radial grid for Hartree potential :     1444
  | Number of spin channels           :        1

------------------------------------------------------------
          Reading file control.in.
------------------------------------------------------------
  XC: Using PBE gradient-corrected functionals.
  Using libMBD for calculating MBD and TS energies
  Spin treatment: No spin polarisation.
  Found k-point grid:         9         9         8
  Scalar relativistic treatment of kinetic energy: on-site free-atom approximation to ZORA.
  Max energy increase before discarding BFGS move:   0.100000E-01 eV
  Assuming qualitatively harmonic for steps shorter than   0.150000E-01 A.
  S.C.F. convergence parameters will be adjusted in iteration number     3 of each new s.c.f. cycle.
  Geometry relaxation: Modified BFGS - TRM (trust radius method) for lattice optimization.
  Convergence accuracy for geometry relaxation: Maximum force <   0.100000E-01 eV/A.
 
  Reading configuration options for species Pd                  .
  | Found nuclear charge :  46.0000
  | Found atomic mass :    106.420000000000      amu
  | Found l_max for Hartree potential  :   6
  | Found cutoff potl. onset [A], width [A], scale factor :    4.00000    2.00000    1.00000
  | Threshold for basis-dependent cutoff potential is   0.100000E-03
  | Found data for basic radial integration grid :    62 points, outermost radius =    7.000 A
  | Found multiplier for basic radial grid :   2
  | Found angular grid specification: user-specified.
  | Specified grid contains     6 separate shells.
  | Check grid settings after all constraints further below.
  | Found free-atom valence shell :  5 s   1.000
  | Found free-atom valence shell :  4 p   6.000
  | Found free-atom valence shell :  4 d   9.000
  | Found free-ion valence shell :  5 s   0.000
  | Found free-ion valence shell :  4 p   6.000
  | Found free-ion valence shell :  4 d   8.000
  | Found ionic basis function :  5 p , default cutoff radius.
  | Found hydrogenic basis function :  4 f   8.000
  | Found hydrogenic basis function :  5 g  10.000
  | Found hydrogenic basis function :  3 s   2.600
  | Found hydrogenic basis function :  3 d   2.500
  Species Pd                  : Missing cutoff potential type.
  Defaulting to exp(1/x)/(1-x)^2 type cutoff potential.
  Species Pd: No 'logarithmic' tag. Using default grid for free atom:
  | Default logarithmic grid data [bohr] : 0.1000E-03 0.1000E+03 0.1012E+01
  | Will include ionic basis functions of  2.0-fold positive Pd                   ion.
  Species Pd: On-site basis accuracy parameter (for Gram-Schmidt orthonormalisation) not specified.
  Using default value basis_acc =  0.1000000E-03.
  Species Pd                  : Using default innermost maximum threshold i_radial=  2 for radial functions.
  Species Pd                  : Default cutoff onset for free atom density etc. : 0.40000000E+01 AA.
  Species Pd                  : Basic radial grid will be enhanced according to radial_multiplier =   2, to contain   125 grid points.
 
  Reading configuration options for species Se                  .
  | Found nuclear charge :  34.0000
  | Found atomic mass :    78.9600000000000      amu
  | Found l_max for Hartree potential  :   6
  | Found cutoff potl. onset [A], width [A], scale factor :    4.00000    2.00000    1.00000
  | Threshold for basis-dependent cutoff potential is   0.100000E-03
  | Found data for basic radial integration grid :    55 points, outermost radius =    7.000 A
  | Found multiplier for basic radial grid :   2
  | Found angular grid specification: user-specified.
  | Specified grid contains     5 separate shells.
  | Check grid settings after all constraints further below.
  | Found free-atom valence shell :  4 s   2.000
  | Found free-atom valence shell :  4 p   4.000
  | Found free-atom valence shell :  3 d  10.000
  | Found free-ion valence shell :  4 s   1.000
  | Found free-ion valence shell :  4 p   3.000
  | Found free-ion valence shell :  3 d  10.000
  | Found hydrogenic basis function :  3 d   4.300
  | Found hydrogenic basis function :  2 p   1.600
  | Found hydrogenic basis function :  4 f   7.200
  | Found ionic basis function :  4 s , default cutoff radius.
  Species Se                  : Missing cutoff potential type.
  Defaulting to exp(1/x)/(1-x)^2 type cutoff potential.
  Species Se: No 'logarithmic' tag. Using default grid for free atom:
  | Default logarithmic grid data [bohr] : 0.1000E-03 0.1000E+03 0.1012E+01
  | Will include ionic basis functions of  2.0-fold positive Se                   ion.
  Species Se: On-site basis accuracy parameter (for Gram-Schmidt orthonormalisation) not specified.
  Using default value basis_acc =  0.1000000E-03.
  Species Se                  : Using default innermost maximum threshold i_radial=  2 for radial functions.
  Species Se                  : Default cutoff onset for free atom density etc. : 0.40000000E+01 AA.
  Species Se                  : Basic radial grid will be enhanced according to radial_multiplier =   2, to contain   111 grid points.
 
  Finished reading input file 'control.in'. Consistency checks are next.
 
  MPI_IN_PLACE appears to work with this MPI implementation.
  | Keeping use_mpi_in_place .true. (see manual).
  Target number of points in a grid batch is not set. Defaulting to  100
  Method for grid partitioning is not set. Defaulting to parallel hash+maxmin partitioning.
  Batch size limit is not set. Defaulting to    200
  By default, will store active basis functions for each batch.
  If in need of memory, prune_basis_once .false. can be used to disable this option.
  communication_type for Hartree potential was not specified.
  Defaulting to calc_hartree .
  Defaulting to Pulay charge density mixer.
  Pulay mixer: Number of relevant iterations not set.
  Defaulting to    8 iterations.
  Pulay mixer: Number of initial linear mixing iterations not set.
  Defaulting to    0 iterations.
  Work space size for distributed Hartree potential not set.
  Defaulting to   0.200000E+03 MB.
  Mixing parameter for charge density mixing has not been set.
  Using default: charge_mix_param =     0.0500.
  The mixing parameter will be adjusted in iteration number     3 of each s.c.f. cycle (i.e., each geometry step).
  Algorithm-dependent basis array size parameters:
  | n_max_pulay                         :        8
  Maximum number of self-consistency iterations not provided.
  Presetting  1000 iterations.
  Presetting      1001 iterations before the initial mixing cycle
  is restarted anyway using the sc_init_iter criterion / keyword.
  Presetting a factor      1.000 between actual scf density residual
  and density convergence criterion sc_accuracy_rho below which sc_init_iter
  takes no effect.
 * No s.c.f. convergence criteria (sc_accuracy_*) were provided in control.in.
 * The run will proceed with a reasonable default guess, but please check whether.
 * the s.c.f. cycles seem to take too much or too little time.
  No maximum number of relaxation steps, defaulting to     1000
  Using explicit Hessian from geometry.in.
  Maximum energy tolerance by which TRM/BFGS trajectory may increase over multiple steps:   0.300000E-02
  No trust radius initializer. Defaulting to   0.200000E+00 A.
  Unit cell relaxation: Unit cell will be relaxed fully.
  Unit cell relaxation: Analytical stress will be used.
  Analytical stress will be computed.
  Analytical stress calculation: Only the upper triangle is calculated.
                                 Final output is symmetrized.
  Analytical stress calculation: scf convergence accuracy of stress not set.
                                 Analytical stress self-consistency will not be checked explicitly.
                                 Be sure to set other criteria like sc_accuracy_rho tight enough.
 * Notice: The s.c.f. convergence criterion sc_accuracy_rho was not provided.
 * We used to stop in this case, and ask the user to provide reasonable
 * scf convergence criteria. However, this led some users to employ criteria
 * that led to extremely long run times, e.g., for simple relaxation.
 * We now preset a default value for sc_accuracy_rho if it is not set.
 * You may still wish to check if this setting is too tight or too loose for your needs.
 * Based on n_atoms, FHI-aims chose sc_accuracy_rho =  0.141421E-05 .
  Force calculation: scf convergence accuracy of forces not set.
  Defaulting to 'sc_accuracy_forces not_checked'.
  Handling of forces: Unphysical translation and rotation will be removed from forces.
  No accuracy limit for integral partition fn. given. Defaulting to  0.1000E-14.
  No threshold value for u(r) in integrations given. Defaulting to  0.1000E-05.
  No occupation type (smearing scheme) given. Defaulting to Gaussian broadening, width =  0.1000E-01 eV.
  The width will be adjusted in iteration number     3 of each s.c.f. cycle (i.e., each geometry step).
  S.C.F. convergence parameters will be adjusted in iteration number     3 of the first full s.c.f. cycle only.
  No accuracy for occupation numbers given. Defaulting to  0.1000E-12.
  No threshold value for occupation numbers given. Defaulting to  0.0000E+00.
  No accuracy for fermi level given. Defaulting to  0.1000E-19.
  Maximum # of iterations to find E_F not set. Defaulting to  200.
  Preferred method for the eigenvalue solver ('KS_method') not specified in 'control.in'.
  Defaulting to serial version, LAPACK (via ELSI), since more k-points than CPUs available.
  Will not use alltoall communication since running on < 1024 CPUs.
  Threshold for basis singularities not set.
  Default threshold for basis singularities:  0.1000E-04
  partition_type (choice of integration weights) for integrals was not specified.
  | Using a version of the partition function of Stratmann and coworkers ('stratmann_sparse').
  | At each grid point, the set of atoms used to build the partition table is smoothly restricted to
  | only those atoms whose free-atom density would be non-zero at that grid point.
  Partitioning for Hartree potential was not defined. Using partition_type for integrals.
  | Adjusted default value of keyword multip_moments_threshold to:       0.10000000E-11
  | This value may affect high angular momentum components of the Hartree potential in periodic systems.
  Angular momentum expansion for Kerker preconditioner not set explicitly.
  | Using default value of   0
  No explicit requirement for turning off preconditioner.
  | By default, it will be turned off when the charge convergence reaches
  | sc_accuracy_rho  =   0.141421E-05
  No special mixing parameter while Kerker preconditioner is on.
  Using default: charge_mix_param =     0.0500.
  No q(lm)/r^(l+1) cutoff set for long-range Hartree potential.
  | Using default value of  0.100000E-09 .
  | Verify using the multipole_threshold keyword.
  Defaulting to new monopole extrapolation.
  Density update method: automatic selection selected.
  Using density matrix based charge density update.
  Using density matrix based charge density update.
  Using packed matrix style: index .
  Geometry relaxation: A file "geometry.in.next_step" is written out by default after each step.
  | This file contains the geometry of the current relaxation step as well as
  | the current Hessian matrix needed to restart the relaxation algorithm.
  | If you do not want part or all of this information, use the keywords
  | "write_restart_geometry" or "hessian_to_restart_geometry" to switch the output off.
  Defaulting to use time-reversal symmetry for k-point grid.
  Charge integration errors on the 3D integration grid will be compensated
  by explicit normalization and distribution of residual charges.
  Use the "compensate_multipole_errors" flag to change this behaviour.
------------------------------------------------------------


------------------------------------------------------------
          Reading geometry description geometry.in.
------------------------------------------------------------
  Input structure read successfully.
  The structure contains       12 atoms,  and a total of        456.000 electrons.

  Input geometry:
  | Unit cell:
  |        5.84038782        0.00000000        0.00000000
  |        0.00000000        5.95180497        0.00000000
  |        0.00000000        0.00000000        7.50655324
  | Atomic structure:
  |       Atom                x [A]            y [A]            z [A]
  |    1: Species Pd            2.92701753        0.00469925        0.00498195
  |    2: Species Pd            0.00441323        0.00472430        3.76336378
  |    3: Species Pd            0.00497379        2.98296799        0.00522659
  |    4: Species Pd            2.92745743        2.98303816        3.76309962
  |    5: Species Se            3.57935702        0.70802184        3.03035043
  |    6: Species Se            5.19708388        5.25820138        6.78560938
  |    7: Species Se            0.65711576        2.27991424        4.49472118
  |    8: Species Se            2.27460276        3.68617601        0.73787519
  |    9: Species Se            2.27485448        5.25820013        4.49480825
  |   10: Species Se            0.65734213        0.70785799        0.73802074
  |   11: Species Se            5.19723287        3.68597788        3.03035771
  |   12: Species Se            3.57940987        2.27967302        6.78578804

  Lattice parameters for 3D lattice (in Angstroms) :     5.840388    5.951805    7.506553
  Angle(s) between unit vectors (in degrees)       :    90.000000   90.000000   90.000000

  | The smallest distance between any two atoms is         2.40506808 AA.
  | The first atom of this pair is atom number                      6 .
  | The second atom of this pair is atom number                    10 .
  | Wigner-Seitz cell of the first atom image           0     0     0 .
  | (The Wigner-Seitz cell of the second atom is 0 0 0  by definition.)

  Symmetry information by spglib:
  | Precision set to  0.1E-04
  | Number of Operations  : 1
  | Space group           : 1
  | International         : P1 bm
  | Schoenflies           : C1^1

  Quantities derived from the lattice vectors:
  | Reciprocal lattice vector 1:  1.075816  0.000000  0.000000
  | Reciprocal lattice vector 2:  0.000000  1.055677  0.000000
  | Reciprocal lattice vector 3:  0.000000  0.000000  0.837027
  | Unit cell volume                               :   0.260934E+03  A^3

  Range separation radius for Ewald summation (hartree_convergence_parameter):      4.00807774 bohr.

  Fractional coordinates:
                         L1                L2                L3
       atom_frac         0.50116835        0.00078955        0.00066368  Pd
       atom_frac         0.00075564        0.00079376        0.50134378  Pd
       atom_frac         0.00085162        0.50118712        0.00069627  Pd
       atom_frac         0.50124367        0.50119891        0.50130859  Pd
       atom_frac         0.61286290        0.11895918        0.40369399  Se
       atom_frac         0.88985253        0.88346332        0.90395807  Se
       atom_frac         0.11251235        0.38306266        0.59877297  Se
       atom_frac         0.38946091        0.61933750        0.09829747  Se
       atom_frac         0.38950401        0.88346311        0.59878457  Se
       atom_frac         0.11255111        0.11893165        0.09831686  Se
       atom_frac         0.88987804        0.61930421        0.40369496  Se
       atom_frac         0.61287195        0.38302213        0.90398187  Se

  Number of empty states per atom not set in control.in - providing a guess from actual geometry.
  | Total number of empty states used during s.c.f. cycle:       66
  If you use a very high smearing, use empty_states (per atom!) in control.in to increase this value.

  Structure-dependent array size parameters: 
  | Maximum number of distinct radial functions  :       27
  | Maximum number of basis functions            :      468
  | Number of Kohn-Sham states (occupied + empty):      294
------------------------------------------------------------

------------------------------------------------------------
          Preparing all fixed parts of the calculation.
------------------------------------------------------------
  Determining machine precision:
    2.225073858507201E-308
  Setting up grids for atomic and cluster calculations.

  Creating wave function, potential, and density for free atoms.

  Species: Pd

  List of occupied orbitals and eigenvalues:
    n    l              occ      energy [Ha]    energy [eV]
    1    0           2.0000      -913.269104    -24851.3168
    2    0           2.0000      -130.434372     -3549.2998
    3    0           2.0000       -23.521804      -640.0609
    4    0           2.0000        -3.256918       -88.6253
    5    0           1.0000        -0.157260        -4.2793
    2    1           6.0000      -116.910756     -3181.3035
    3    1           6.0000       -19.103344      -519.8284
    4    1           6.0000        -1.998052       -54.3697
    3    2          10.0000       -12.098182      -329.2083
    4    2           9.0000        -0.243389        -6.6230


  Species: Se

  List of occupied orbitals and eigenvalues:
    n    l              occ      energy [Ha]    energy [eV]
    1    0           2.0000      -466.337810    -12689.6975
    2    0           2.0000       -59.202598     -1610.9847
    3    0           2.0000        -7.847116      -213.5309
    4    0           2.0000        -0.634372       -17.2621
    2    1           6.0000       -52.061107     -1416.6548
    3    1           6.0000        -5.620941      -152.9536
    4    1           4.0000        -0.238469        -6.4891
    3    2          10.0000        -1.951949       -53.1152

  Creating fixed part of basis set: Ionic, confined, hydrogenic.
 
  Pd                   ion:

  List of free ionic orbitals and eigenvalues:
    n    l      energy [Ha]    energy [eV]
    1    0      -914.099884    -24873.9234
    2    0      -131.248265     -3571.4470
    3    0       -24.332473      -662.1203
    4    0        -4.059276      -110.4585
    2    1      -117.724296     -3203.4411
    3    1       -19.913908      -541.8850
    4    1        -2.795328       -76.0648
    3    2       -12.908733      -351.2645
    4    2        -1.004248       -27.3270


  List of ionic basis orbitals and eigenvalues:
    n    l      energy [Ha]    energy [eV]    outer radius [A]
    5    1        -0.516938       -14.0666       5.427025

 
  Pd                   hydrogenic:
 
  List of hydrogenic basis orbitals: 
    n    l      effective z      eigenvalue [eV]  inner max. [A]     outer max. [A]     outer radius [A]   
    4    3         8.000000       -54.4226           1.054686           1.054686           4.629581
    5    4        10.000000       -54.4226           1.330451           1.330451           5.043202
    3    0         2.600000        -9.8948           0.150992           2.606197           5.493778
    3    2         2.500000        -9.3396           1.873517           1.873517           5.493778
 
 
  Se                   ion:

  List of free ionic orbitals and eigenvalues:
    n    l      energy [Ha]    energy [eV]
    1    0      -467.261007    -12714.8189
    2    0       -60.104893     -1635.5374
    3    0        -8.743714      -237.9286
    4    0        -1.414053       -38.4783
    2    1       -52.964156     -1441.2280
    3    1        -6.516916      -177.3343
    4    1        -0.961869       -26.1738
    3    2        -2.844511       -77.4031


  List of ionic basis orbitals and eigenvalues:
    n    l      energy [Ha]    energy [eV]    outer radius [A]
    4    0        -1.414046       -38.4782       4.083166

 
  Se                   hydrogenic:
 
  List of hydrogenic basis orbitals: 
    n    l      effective z      eigenvalue [eV]  inner max. [A]     outer max. [A]     outer radius [A]   
    3    2         4.300000       -27.9518           1.103845           1.103845           5.278265
    2    1         1.600000        -8.6828           1.326010           1.326010           5.475439
    4    3         7.200000       -44.0822           1.173422           1.173422           4.965294
 

  Adding cutoff potential to free-atom effective potential.
  Creating atomic-like basis functions for current effective potential.

  Species Pd                  :

  List of atomic basis orbitals and eigenvalues:
    n    l      energy [Ha]    energy [eV]    outer radius [A]
    1    0      -913.269104    -24851.3168       0.223280
    2    0      -130.434372     -3549.2998       0.615909
    3    0       -23.521804      -640.0609       1.414312
    4    0        -3.256918       -88.6253       3.581357
    5    0        -0.157260        -4.2793       5.427025
    2    1      -116.910756     -3181.3035       0.631154
    3    1       -19.103344      -519.8284       1.540671
    4    1        -1.998052       -54.3697       4.408641
    3    2       -12.098182      -329.2083       1.806051
    4    2        -0.243389        -6.6230       5.361084


  Species Se                  :

  List of atomic basis orbitals and eigenvalues:
    n    l      energy [Ha]    energy [eV]    outer radius [A]
    1    0      -466.337810    -12689.6975       0.309561
    2    0       -59.202598     -1610.9847       0.885812
    3    0        -7.847116      -213.5309       2.355489
    4    0        -0.634372       -17.2621       5.214131
    2    1       -52.061107     -1416.6548       0.907737
    3    1        -5.620941      -152.9536       2.694529
    4    1        -0.238469        -6.4891       5.408909
    3    2        -1.951949       -53.1152       4.083166

  Assembling full basis from fixed parts.
  | Species Pd :   atomic orbital   1 s accepted.
  | Species Pd :   atomic orbital   2 s accepted.
  | Species Pd :   atomic orbital   3 s accepted.
  | Species Pd :   atomic orbital   4 s accepted.
  | Species Pd :   atomic orbital   5 s accepted.
  | Species Pd :    hydro orbital   3 s accepted.
  | Species Pd :   atomic orbital   2 p accepted.
  | Species Pd :   atomic orbital   3 p accepted.
  | Species Pd :   atomic orbital   4 p accepted.
  | Species Pd :    ionic orbital   5 p accepted.
  | Species Pd :   atomic orbital   3 d accepted.
  | Species Pd :   atomic orbital   4 d accepted.
  | Species Pd :    hydro orbital   3 d accepted.
  | Species Pd :    hydro orbital   4 f accepted.
  | Species Pd :    hydro orbital   5 g accepted.
  | Species Se :   atomic orbital   1 s accepted.
  | Species Se :   atomic orbital   2 s accepted.
  | Species Se :   atomic orbital   3 s accepted.
  | Species Se :    ionic orbital   4 s accepted.
  | Species Se :   atomic orbital   4 s accepted.
  | Species Se :   atomic orbital   2 p accepted.
  | Species Se :   atomic orbital   3 p accepted.
  | Species Se :   atomic orbital   4 p accepted.
  | Species Se :    hydro orbital   2 p accepted.
  | Species Se :   atomic orbital   3 d accepted.
  | Species Se :    hydro orbital   3 d accepted.
  | Species Se :    hydro orbital   4 f accepted.
 
  Basis size parameters after reduction:
  | Total number of radial functions:       27
  | Total number of basis functions :      468
 
  Per-task memory consumption for arrays in subroutine allocate_ext:
  |           9.993344MB.
  Testing on-site integration grid accuracy.
  |  Species  Function  <phi|h_atom|phi> (log., in eV)  <phi|h_atom|phi> (rad., in eV)
           1        1             -24851.3167505682             -24851.3148165635
           1        2              -3549.2998457785              -3549.2998098031
           1        3               -640.0608571327               -640.0608534886
           1        4                -88.6252603131                -88.6252593316
           1        5                 -4.2849374515                 -4.2849400622
           1        6                  4.9432123540                  4.9432188418
           1        7              -3181.3035399559              -3181.3035364574
           1        8               -519.8284281886               -519.8284264063
           1        9                -54.3697495804                -54.3697489261
           1       10                  0.8628369484                  0.8628370487
           1       11               -329.2082917394               -329.2082912864
           1       12                 -6.6230267036                 -6.6230265076
           1       13                  5.4924295291                  5.4924115607
           1       14                 25.0740861942                 25.0740861175
           1       15                 38.8271273823                 38.8271278029
           2       16             -12689.6974611609             -12689.6967666984
           2       17              -1610.9846578580              -1610.9846472470
           2       18               -213.5308789869               -213.5308777267
           2       19                -17.0464428502                -17.0464426496
           2       20                  6.7356859379                  6.7356842047
           2       21              -1416.6548010133              -1416.6548002108
           2       22               -152.9535734377               -152.9535727493
           2       23                 -6.4896265677                 -6.4896303794
           2       24                  5.2703037283                  5.2701679583
           2       25                -53.1152220964                -53.1152219035
           2       26                  7.6186674138                  7.6186665630
           2       27                 23.1072799052                 23.1072803137

  Preparing densities etc. for the partition functions (integrals / Hartree potential).

  Preparations completed.
  max(cpu_time)          :      0.547 s.
  Wall clock time (cpu1) :      0.578 s.
------------------------------------------------------------

------------------------------------------------------------
          Begin self-consistency loop: Initialization.

          Date     :  20200420, Time     :  113500.163
------------------------------------------------------------

  Initializing index lists of integration centers etc. from given atomic structure:
  Mapping all atomic coordinates to central unit cell.

  Initializing the k-points
  Using symmetry for reducing the k-points
  | k-points reduced from:      648 to      325
  | Number of k-points                             :       325
  The eigenvectors in the calculations are COMPLEX.
  | K-points in task   0:        13
  | K-points in task   1:        14
  | K-points in task   2:        14
  | K-points in task   3:        14
  | K-points in task   4:        14
  | K-points in task   5:        14
  | K-points in task   6:        14
  | K-points in task   7:        14
  | K-points in task   8:        14
  | K-points in task   9:        14
  | K-points in task  10:        14
  | K-points in task  11:        14
  | K-points in task  12:        14
  | K-points in task  13:        14
  | K-points in task  14:        13
  | K-points in task  15:        13
  | K-points in task  16:        13
  | K-points in task  17:        13
  | K-points in task  18:        13
  | K-points in task  19:        13
  | K-points in task  20:        13
  | K-points in task  21:        13
  | K-points in task  22:        13
  | K-points in task  23:        13
  | Number of basis functions in the Hamiltonian integrals :      5574
  | Number of basis functions in a single unit cell        :       468
  | Number of centers in hartree potential         :      1309
  | Number of centers in hartree multipole         :       762
  | Number of centers in electron density summation:       591
  | Number of centers in basis integrals           :       639
  | Number of centers in integrals                 :       235
  | Number of centers in hamiltonian               :       595
  | Consuming        436 KiB for k_phase.
  | Number of super-cells (origin) [n_cells]                     :         567
  | Number of super-cells (after PM_index) [n_cells]             :          86
  | Number of super-cells in hamiltonian [n_cells_in_hamiltonian]:          86
  | Size of matrix packed + index [n_hamiltonian_matrix_size] :     1285833

  Initializing relaxation algorithms.
  | Estimated reciprocal-space cutoff momentum G_max:         2.42281924 bohr^-1 .
  | Reciprocal lattice points for long-range Hartree potential:     410
  Partitioning the integration grid into batches with parallel hashing+maxmin method.
  | Number of batches:     4190
  | Maximal batch size:     110
  | Minimal batch size:      49
  | Average batch size:      91.679
  | Standard deviation of batch sizes:      11.794

  Integration load balanced across    24 MPI tasks.
  Work distribution over tasks is as follows:
  Task     0 has      16000 integration points.
  Task     1 has      16027 integration points.
  Task     2 has      16023 integration points.
  Task     3 has      15968 integration points.
  Task     4 has      16013 integration points.
  Task     5 has      16031 integration points.
  Task     6 has      16036 integration points.
  Task     7 has      16026 integration points.
  Task     8 has      15996 integration points.
  Task     9 has      16021 integration points.
  Task    10 has      15999 integration points.
  Task    11 has      16033 integration points.
  Task    12 has      16027 integration points.
  Task    13 has      16024 integration points.
  Task    14 has      16033 integration points.
  Task    15 has      15962 integration points.
  Task    16 has      15962 integration points.
  Task    17 has      15995 integration points.
  Task    18 has      15999 integration points.
  Task    19 has      15961 integration points.
  Task    20 has      15995 integration points.
  Task    21 has      16015 integration points.
  Task    22 has      15966 integration points.
  Task    23 has      16024 integration points.
  Initializing partition tables, free-atom densities, potentials, etc. across the integration grid (initialize_grid_storage).
  | initialize_grid_storage: Actual outermost partition radius vs. multipole_radius_free
  | (-- VB: in principle, multipole_radius_free should be larger, hence this output)
  | Species        1: Confinement radius =              6.000000000000000 AA, multipole_radius_free =              6.058219618167466 AA.
  | Species        1: outer_partition_radius set to              6.058219618167466 AA .
  | Species        2: Confinement radius =              6.000000000000000 AA, multipole_radius_free =              6.037996416842453 AA.
  | Species        2: outer_partition_radius set to              6.037996416842453 AA .
  | The sparse table of interatomic distances needs       2886.98 kbyte instead of      3266.57 kbyte of memory.
  | Net number of integration points:   384136
  | of which are non-zero points    :   322287
  | Numerical average free-atom electrostatic potential    :    -16.97147457 eV
  Renormalizing the initial density to the exact electron count on the 3D integration grid.
  | Initial density: Formal number of electrons (from input files) :     456.0000000000
  | Integrated number of electrons on 3D grid     :     456.0000344784
  | Charge integration error                      :       0.0000344784
  | Normalization factor for density and gradient :       0.9999999244
  Renormalizing the free-atom superposition density to the exact electron count on the 3D integration grid.
  | Formal number of electrons (from input files) :     456.0000000000
  | Integrated number of electrons on 3D grid     :     456.0000344784
  | Charge integration error                      :       0.0000344784
  | Normalization factor for density and gradient :       0.9999999244
  Obtaining max. number of non-zero basis functions in each batch (get_n_compute_maxes).
  | Maximal number of non-zero basis functions:     1007 in task     0
  | Maximal number of non-zero basis functions:     1024 in task     1
  | Maximal number of non-zero basis functions:     1032 in task     2
  | Maximal number of non-zero basis functions:     1013 in task     3
  | Maximal number of non-zero basis functions:     1008 in task     4
  | Maximal number of non-zero basis functions:     1011 in task     5
  | Maximal number of non-zero basis functions:     1024 in task     6
  | Maximal number of non-zero basis functions:     1026 in task     7
  | Maximal number of non-zero basis functions:     1009 in task     8
  | Maximal number of non-zero basis functions:     1019 in task     9
  | Maximal number of non-zero basis functions:     1026 in task    10
  | Maximal number of non-zero basis functions:     1014 in task    11
  | Maximal number of non-zero basis functions:     1028 in task    12
  | Maximal number of non-zero basis functions:     1011 in task    13
  | Maximal number of non-zero basis functions:     1033 in task    14
  | Maximal number of non-zero basis functions:     1021 in task    15
  | Maximal number of non-zero basis functions:     1024 in task    16
  | Maximal number of non-zero basis functions:     1009 in task    17
  | Maximal number of non-zero basis functions:     1016 in task    18
  | Maximal number of non-zero basis functions:     1024 in task    19
  | Maximal number of non-zero basis functions:     1006 in task    20
  | Maximal number of non-zero basis functions:     1027 in task    21
  | Maximal number of non-zero basis functions:     1010 in task    22
  | Maximal number of non-zero basis functions:     1004 in task    23
  Allocating       27.293 MB for KS_eigenvector_complex
  Integrating Hamiltonian matrix: batch-based integration.
  Time summed over all CPUs for integration: real work       62.424 s, elapsed       64.532 s
  Integrating overlap matrix.
  Time summed over all CPUs for integration: real work       44.944 s, elapsed       45.606 s
  Decreasing sparse matrix size:
  | Tolerance:  0.1000E-12
  Hamiltonian matrix
  | Array has  1112508 nonzero elements out of  1285833 elements
  | Sparsity factor is 0.135
  Overlap matrix
  | Array has  1027850 nonzero elements out of  1285833 elements
  | Sparsity factor is 0.201
  New size of hamiltonian matrix:     1112604

  Updating Kohn-Sham eigenvalues and eigenvectors using ELSI and the (modified) LAPACK eigensolver.
  Singularity check in k-point 24, task 0 (analysis for other k-points/tasks may follow below):
  Overlap matrix is not singular
  | Lowest and highest eigenvalues :  0.7696E-03,  0.7170E+01
  Finished singularity check of overlap matrix
  | Time :     0.075 s
  Starting LAPACK eigensolver
  Finished Cholesky decomposition
  | Time :     0.018 s
  Finished transformation to standard eigenproblem
  | Time :     0.021 s
  Finished solving standard eigenproblem
  | Time :     0.071 s
  Finished back-transformation of eigenvectors
  | Time :     0.008 s

  Obtaining occupation numbers and chemical potential using ELSI.
  | Chemical potential (Fermi level):    -4.67432962 eV
  Writing Kohn-Sham eigenvalues.
  K-point:       1 at    0.000000    0.000000    0.000000 (in units of recip. lattice)

  State    Occupation    Eigenvalue [Ha]    Eigenvalue [eV]
      1       2.00000        -913.279570       -24851.60153
      2       2.00000        -913.279566       -24851.60142
      3       2.00000        -913.279555       -24851.60112
      4       2.00000        -913.279479       -24851.59907
      5       2.00000        -466.350362       -12690.03901
      6       2.00000        -466.350321       -12690.03791
      7       2.00000        -466.350283       -12690.03686
      8       2.00000        -466.350278       -12690.03671
      9       2.00000        -466.350275       -12690.03665
     10       2.00000        -466.350264       -12690.03634
     11       2.00000        -466.350247       -12690.03588
     12       2.00000        -466.350226       -12690.03531
     13       2.00000        -130.445154        -3549.59325
     14       2.00000        -130.445151        -3549.59315
     15       2.00000        -130.445139        -3549.59284
     16       2.00000        -130.445063        -3549.59077
     17       2.00000        -116.921563        -3181.59761
     18       2.00000        -116.921559        -3181.59750
     19       2.00000        -116.921554        -3181.59736
     20       2.00000        -116.921550        -3181.59725
     21       2.00000        -116.921548        -3181.59719
     22       2.00000        -116.921539        -3181.59696
     23       2.00000        -116.921499        -3181.59586
     24       2.00000        -116.921495        -3181.59575
     25       2.00000        -116.921484        -3181.59545
     26       2.00000        -116.921472        -3181.59512
     27       2.00000        -116.921463        -3181.59488
     28       2.00000        -116.921408        -3181.59339
     29       2.00000         -59.215576        -1611.33781
     30       2.00000         -59.215535        -1611.33669
     31       2.00000         -59.215496        -1611.33562
     32       2.00000         -59.215490        -1611.33548
     33       2.00000         -59.215488        -1611.33542
     34       2.00000         -59.215476        -1611.33509
     35       2.00000         -59.215459        -1611.33463
     36       2.00000         -59.215438        -1611.33405
     37       2.00000         -52.074093        -1417.00816
     38       2.00000         -52.074068        -1417.00748
     39       2.00000         -52.074053        -1417.00707
     40       2.00000         -52.074026        -1417.00633
     41       2.00000         -52.074018        -1417.00613
     42       2.00000         -52.074013        -1417.00600
     43       2.00000         -52.074008        -1417.00585
     44       2.00000         -52.074005        -1417.00577
     45       2.00000         -52.073994        -1417.00546
     46       2.00000         -52.073986        -1417.00526
     47       2.00000         -52.073981        -1417.00513
     48       2.00000         -52.073980        -1417.00510
     49       2.00000         -52.073977        -1417.00501
     50       2.00000         -52.073976        -1417.00499
     51       2.00000         -52.073967        -1417.00474
     52       2.00000         -52.073955        -1417.00442
     53       2.00000         -52.073950        -1417.00428
     54       2.00000         -52.073939        -1417.00397
     55       2.00000         -52.073933        -1417.00382
     56       2.00000         -52.073931        -1417.00376
     57       2.00000         -52.073929        -1417.00370
     58       2.00000         -52.073919        -1417.00344
     59       2.00000         -52.073902        -1417.00298
     60       2.00000         -52.073881        -1417.00240
     61       2.00000         -23.533353         -640.37511
     62       2.00000         -23.533348         -640.37499
     63       2.00000         -23.533337         -640.37467
     64       2.00000         -23.533255         -640.37246
     65       2.00000         -19.115153         -520.14977
     66       2.00000         -19.115149         -520.14966
     67       2.00000         -19.115134         -520.14927
     68       2.00000         -19.115064         -520.14736
     69       2.00000         -19.115059         -520.14722
     70       2.00000         -19.115053         -520.14705
     71       2.00000         -19.115049         -520.14695
     72       2.00000         -19.114965         -520.14467
     73       2.00000         -19.114516         -520.13245
     74       2.00000         -19.114513         -520.13236
     75       2.00000         -19.114501         -520.13205
     76       2.00000         -19.114423         -520.12990
     77       2.00000         -12.109960         -329.52879
     78       2.00000         -12.109956         -329.52866
     79       2.00000         -12.109944         -329.52833
     80       2.00000         -12.109924         -329.52781
     81       2.00000         -12.109920         -329.52768
     82       2.00000         -12.109908         -329.52735
     83       2.00000         -12.109861         -329.52608
     84       2.00000         -12.109825         -329.52511
     85       2.00000         -12.109571         -329.51820
     86       2.00000         -12.109568         -329.51811
     87       2.00000         -12.109555         -329.51775
     88       2.00000         -12.109515         -329.51666
     89       2.00000         -12.109510         -329.51654
     90       2.00000         -12.109500         -329.51626
     91       2.00000         -12.109475         -329.51559
     92       2.00000         -12.109429         -329.51433
     93       2.00000         -12.109425         -329.51423
     94       2.00000         -12.109419         -329.51407
     95       2.00000         -12.109414         -329.51392
     96       2.00000         -12.109335         -329.51176
     97       2.00000          -7.861890         -213.93291
     98       2.00000          -7.861841         -213.93158
     99       2.00000          -7.861797         -213.93038
    100       2.00000          -7.861792         -213.93025
    101       2.00000          -7.861791         -213.93023
    102       2.00000          -7.861776         -213.92981
    103       2.00000          -7.861757         -213.92928
    104       2.00000          -7.861733         -213.92864
    105       2.00000          -5.636309         -153.37176
    106       2.00000          -5.636269         -153.37067
    107       2.00000          -5.636222         -153.36940
    108       2.00000          -5.636215         -153.36922
    109       2.00000          -5.636205         -153.36894
    110       2.00000          -5.636196         -153.36871
    111       2.00000          -5.636172         -153.36805
    112       2.00000          -5.636151         -153.36747
    113       2.00000          -5.636044         -153.36456
    114       2.00000          -5.635989         -153.36306
    115       2.00000          -5.635937         -153.36164
    116       2.00000          -5.635931         -153.36149
    117       2.00000          -5.635923         -153.36127
    118       2.00000          -5.635903         -153.36072
    119       2.00000          -5.635860         -153.35955
    120       2.00000          -5.635846         -153.35916
    121       2.00000          -5.635371         -153.34625
    122       2.00000          -5.635323         -153.34493
    123       2.00000          -5.635286         -153.34394
    124       2.00000          -5.635278         -153.34371
    125       2.00000          -5.635277         -153.34369
    126       2.00000          -5.635264         -153.34334
    127       2.00000          -5.635249         -153.34292
    128       2.00000          -5.635224         -153.34226
    129       2.00000          -3.274041          -89.09118
    130       2.00000          -3.274035          -89.09102
    131       2.00000          -3.274018          -89.09055
    132       2.00000          -3.273899          -89.08732
    133       2.00000          -2.020412          -54.97821
    134       2.00000          -2.020411          -54.97818
    135       2.00000          -2.020355          -54.97665
    136       2.00000          -2.020218          -54.97293
    137       2.00000          -2.019395          -54.95054
    138       2.00000          -2.019392          -54.95044
    139       2.00000          -2.019353          -54.94939
    140       2.00000          -2.019209          -54.94547
    141       2.00000          -2.013039          -54.77759
    142       2.00000          -2.013038          -54.77756
    143       2.00000          -2.013024          -54.77717
    144       2.00000          -2.012919          -54.77432
    145       2.00000          -1.969299          -53.58735
    146       2.00000          -1.969227          -53.58539
    147       2.00000          -1.969183          -53.58420
    148       2.00000          -1.969156          -53.58346
    149       2.00000          -1.968245          -53.55868
    150       2.00000          -1.968199          -53.55743
    151       2.00000          -1.968152          -53.55614
    152       2.00000          -1.968133          -53.55562
    153       2.00000          -1.967812          -53.54688
    154       2.00000          -1.967790          -53.54630
    155       2.00000          -1.967743          -53.54502
    156       2.00000          -1.967728          -53.54460
    157       2.00000          -1.967672          -53.54308
    158       2.00000          -1.967643          -53.54228
    159       2.00000          -1.967591          -53.54088
    160       2.00000          -1.967582          -53.54063
    161       2.00000          -1.967381          -53.53517
    162       2.00000          -1.967348          -53.53427
    163       2.00000          -1.967333          -53.53386
    164       2.00000          -1.967315          -53.53336
    165       2.00000          -1.967295          -53.53282
    166       2.00000          -1.967289          -53.53266
    167       2.00000          -1.967262          -53.53194
    168       2.00000          -1.967258          -53.53180
    169       2.00000          -1.967236          -53.53123
    170       2.00000          -1.967235          -53.53119
    171       2.00000          -1.967223          -53.53086
    172       2.00000          -1.967214          -53.53060
    173       2.00000          -1.967189          -53.52993
    174       2.00000          -1.967179          -53.52967
    175       2.00000          -1.967173          -53.52951
    176       2.00000          -1.967157          -53.52906
    177       2.00000          -1.966700          -53.51664
    178       2.00000          -1.966672          -53.51587
    179       2.00000          -1.966632          -53.51479
    180       2.00000          -1.966621          -53.51448
    181       2.00000          -1.966349          -53.50709
    182       2.00000          -1.966328          -53.50649
    183       2.00000          -1.966283          -53.50529
    184       2.00000          -1.966278          -53.50515
    185       2.00000          -0.759228          -20.65964
    186       2.00000          -0.741209          -20.16931
    187       2.00000          -0.720281          -19.59984
    188       2.00000          -0.718606          -19.55427
    189       2.00000          -0.652672          -17.76010
    190       2.00000          -0.640696          -17.43422
    191       2.00000          -0.639096          -17.39068
    192       2.00000          -0.627771          -17.08253
    193       2.00000          -0.418644          -11.39187
    194       2.00000          -0.410823          -11.17906
    195       2.00000          -0.388804          -10.57990
    196       2.00000          -0.376722          -10.25112
    197       2.00000          -0.370380          -10.07855
    198       2.00000          -0.368711          -10.03315
    199       2.00000          -0.367182           -9.99154
    200       2.00000          -0.366370           -9.96943
    201       2.00000          -0.365330           -9.94112
    202       2.00000          -0.363507           -9.89152
    203       2.00000          -0.360716           -9.81557
    204       2.00000          -0.351832           -9.57384
    205       2.00000          -0.341049           -9.28043
    206       2.00000          -0.330376           -8.99000
    207       2.00000          -0.323397           -8.80007
    208       2.00000          -0.315871           -8.59529
    209       2.00000          -0.315243           -8.57819
    210       2.00000          -0.306491           -8.34003
    211       2.00000          -0.288630           -7.85403
    212       2.00000          -0.286277           -7.78999
    213       2.00000          -0.285162           -7.75964
    214       2.00000          -0.280238           -7.62566
    215       2.00000          -0.278968           -7.59112
    216       2.00000          -0.277275           -7.54504
    217       2.00000          -0.276403           -7.52132
    218       2.00000          -0.275640           -7.50055
    219       2.00000          -0.273670           -7.44694
    220       2.00000          -0.270453           -7.35941
    221       2.00000          -0.265025           -7.21168
    222       2.00000          -0.262991           -7.15634
    223       2.00000          -0.262830           -7.15196
    224       2.00000          -0.257190           -6.99848
    225       2.00000          -0.225047           -6.12385
    226       2.00000          -0.215929           -5.87572
    227       2.00000          -0.213589           -5.81204
    228       0.00000          -0.167202           -4.54981
    229       0.00000          -0.151855           -4.13218
    230       0.00000          -0.135605           -3.69001
    231       0.00000          -0.130192           -3.54272
    232       0.00000          -0.129591           -3.52635
    233       0.00000          -0.126317           -3.43726
    234       0.00000          -0.116191           -3.16172
    235       0.00000          -0.114618           -3.11891
    236       0.00000          -0.081801           -2.22593
    237       0.00000          -0.037723           -1.02651
    238       0.00000          -0.031398           -0.85439
    239       0.00000          -0.005392           -0.14672
    240       0.00000           0.018708            0.50907
    241       0.00000           0.024443            0.66512
    242       0.00000           0.025121            0.68358
    243       0.00000           0.055399            1.50749
    244       0.00000           0.089146            2.42579
    245       0.00000           0.104302            2.83820
    246       0.00000           0.110983            3.02000
    247       0.00000           0.119377            3.24840
    248       0.00000           0.121708            3.31184
    249       0.00000           0.126095            3.43123
    250       0.00000           0.126392            3.43931
    251       0.00000           0.135899            3.69801
    252       0.00000           0.150845            4.10470
    253       0.00000           0.161939            4.40658
    254       0.00000           0.172996            4.70746
    255       0.00000           0.176909            4.81394
    256       0.00000           0.189563            5.15826
    257       0.00000           0.190839            5.19300
    258       0.00000           0.196534            5.34795
    259       0.00000           0.218985            5.95889
    260       0.00000           0.232290            6.32094
    261       0.00000           0.247926            6.74641
    262       0.00000           0.257464            7.00594
    263       0.00000           0.266535            7.25278
    264       0.00000           0.280785            7.64054
    265       0.00000           0.281393            7.65710
[...]
  Finished Cholesky decomposition
  | Time :     0.011 s
  Finished transformation to standard eigenproblem
  | Time :     0.020 s
  Finished solving standard eigenproblem
  | Time :     0.072 s
  Finished back-transformation of eigenvectors
  | Time :     0.009 s

  Obtaining occupation numbers and chemical potential using ELSI.
  | Chemical potential (Fermi level):    -4.82009186 eV
  What follows are estimated values for band gap, HOMO, LUMO, etc.
  | They are estimated on a discrete k-point grid and not necessarily exact.
  | For converged numbers, create a DOS and/or band structure plot on a denser k-grid.

  Highest occupied state (VBM) at     -4.82321975 eV (relative to internal zero)
  | Occupation number:      1.07049688
  | K-point:       6 at    0.000000    0.111111    0.125000 (in units of recip. lattice)

  Lowest unoccupied state (CBM) at    -4.80698236 eV (relative to internal zero)
  | Occupation number:      0.71079204
  | K-point:      38 at    0.111111    0.000000    0.125000 (in units of recip. lattice)

  ESTIMATED overall HOMO-LUMO gap:      0.01623738 eV between HOMO at k-point 6 and LUMO at k-point 38
  | This appears to be an indirect band gap.
  | Smallest direct gap :      0.14235381 eV for k_point 230 at    0.111111    0.000000    0.125000 (in units of recip. lattice)
  However, this system has fractional occupation numbers. Since we use a finite k-point grid,
  this material is metallic within the approximate finite broadening function (occupation_type)
  applied to determine the occupation numbers.

  Total energy components:
  | Sum of eigenvalues            :      -23864.33472472 Ha     -649381.58803104 eV
  | XC energy correction          :       -1284.32663179 Ha      -34948.30580120 eV
  | XC potential correction       :        1672.90120641 Ha       45521.95795811 eV
  | Free-atom electrostatic energy:      -16511.29402923 Ha     -449295.17042193 eV
  | Hartree energy correction     :           7.14938587 Ha         194.54468797 eV
  | vdW energy correction         :           0.00000000 Ha           0.00000000 eV
  | Entropy correction            :          -0.00004189 Ha          -0.00113985 eV
  | ---------------------------
  | Total energy                  :      -39979.90479345 Ha    -1087908.56160809 eV
  | Total energy, T -> 0          :      -39979.90483534 Ha    -1087908.56274794 eV  <-- do not rely on this value for anything but (periodic) metals
  | Electronic free energy        :      -39979.90487723 Ha    -1087908.56388779 eV

  Derived energy quantities:
  | Kinetic energy                :       41145.64595991 Ha     1119629.99271593 eV
  | Electrostatic energy          :      -79841.22412157 Ha    -2172590.24852282 eV
  | Energy correction for multipole
  | error in Hartree potential    :          -0.00529279 Ha          -0.14402415 eV
  | Sum of eigenvalues per atom                           :      -54115.13233592 eV
  | Total energy (T->0) per atom                          :      -90659.04689566 eV  <-- do not rely on this value for anything but (periodic) metals
  | Electronic free energy per atom                       :      -90659.04699065 eV

  Self-consistency convergence accuracy:
  | Change of charge density      :  0.6216E-03
  | Change of sum of eigenvalues  :  0.1950E-01 eV
  | Change of total energy        :  0.1636E-05 eV

  End self-consistency iteration #    12       :  max(cpu_time)    wall_clock(cpu1)
  | Time for this iteration                    :       12.591 s          12.592 s
  | Charge density update                      :        5.400 s           5.401 s
  | Density mixing & preconditioning           :        0.848 s           0.849 s
  | Hartree multipole update                   :        0.004 s           0.004 s
  | Hartree multipole summation                :        1.714 s           1.714 s
  | Integration                                :        2.607 s           2.607 s
  | Solution of K.-S. eqns.                    :        2.013 s           2.013 s
  | Total energy evaluation                    :        0.003 s           0.003 s

  Partial memory accounting:
  | Current value for overall tracked memory usage:
  |   Minimum:       48.601 MB (on task  0)
  |   Maximum:       50.700 MB (on task  1)
  |   Average:       49.738 MB
  | Peak value for overall tracked memory usage:
  |   Minimum:       62.145 MB (on task 23 after allocating wave)
  |   Maximum:       64.751 MB (on task  2 after allocating wave)
  |   Average:       63.530 MB
  | Largest tracked array allocation so far:
  |   Minimum:       27.293 MB (KS_eigenvector_complex on task  0)
  |   Maximum:       29.393 MB (KS_eigenvector_complex on task  1)
  |   Average:       28.431 MB
  Note:  These values currently only include a subset of arrays which are explicitly tracked.
  The "true" memory usage will be greater.
------------------------------------------------------------

------------------------------------------------------------
          Begin self-consistency iteration #   13

  Date     :  20200420, Time     :  113740.459
------------------------------------------------------------
  Evaluating new KS density using the density matrix
  Evaluating density matrix
  Time summed over all CPUs for getting density from density matrix: real work      119.906 s, elapsed      121.878 s
  Integration grid: deviation in total charge (<rho> - N_e) =  -3.028617E-10
  Pulay mixing of updated and previous charge densities.
  Renormalizing the density to the exact electron count on the 3D integration grid.
  | Formal number of electrons (from input files) :     456.0000000000
  | Integrated number of electrons on 3D grid     :     456.0000565608
  | Charge integration error                      :       0.0000565608
  | Normalization factor for density and gradient :       0.9999998760

  Evaluating partitioned Hartree potential by multipole expansion.
  | Original multipole sum: apparent total charge =  -0.154720E-13
  | Sum of charges compensated after spline to logarithmic grids =   0.902386E-07
  | Analytical far-field extrapolation by fixed multipoles:
  | Hartree multipole sum: apparent total charge =  -0.152721E-13
  Summing up the Hartree potential.
  Time summed over all CPUs for potential: real work       40.024 s, elapsed       40.732 s
  | RMS charge density error from multipole expansion :   0.759999E-02
  | Average real-space part of the electrostatic potential :     -0.00943426 eV

  Integrating Hamiltonian matrix: batch-based integration.
  Time summed over all CPUs for integration: real work       61.319 s, elapsed       62.640 s

  Updating Kohn-Sham eigenvalues and eigenvectors using ELSI and the (modified) LAPACK eigensolver.
  Starting LAPACK eigensolver
  Finished Cholesky decomposition
  | Time :     0.011 s
  Finished transformation to standard eigenproblem
  | Time :     0.020 s
  Finished solving standard eigenproblem
  | Time :     0.071 s
  Finished back-transformation of eigenvectors
  | Time :     0.009 s

  Obtaining occupation numbers and chemical potential using ELSI.
  | Chemical potential (Fermi level):    -4.82052410 eV
  What follows are estimated values for band gap, HOMO, LUMO, etc.
  | They are estimated on a discrete k-point grid and not necessarily exact.
  | For converged numbers, create a DOS and/or band structure plot on a denser k-grid.

  Highest occupied state (VBM) at     -4.82386453 eV (relative to internal zero)
  | Occupation number:      1.07527339
  | K-point:       6 at    0.000000    0.111111    0.125000 (in units of recip. lattice)

  Lowest unoccupied state (CBM) at    -4.80762356 eV (relative to internal zero)
  | Occupation number:      0.71519922
  | K-point:      38 at    0.111111    0.000000    0.125000 (in units of recip. lattice)

  ESTIMATED overall HOMO-LUMO gap:      0.01624097 eV between HOMO at k-point 6 and LUMO at k-point 38
  | This appears to be an indirect band gap.
  | Smallest direct gap :      0.14240865 eV for k_point 230 at    0.111111    0.000000    0.125000 (in units of recip. lattice)
  However, this system has fractional occupation numbers. Since we use a finite k-point grid,
  this material is metallic within the approximate finite broadening function (occupation_type)
  applied to determine the occupation numbers.

  Total energy components:
  | Sum of eigenvalues            :      -23864.34323295 Ha     -649381.81955188 eV
  | XC energy correction          :       -1284.32640743 Ha      -34948.29969620 eV
  | XC potential correction       :        1672.90088389 Ha       45521.94918184 eV
  | Free-atom electrostatic energy:      -16511.29402923 Ha     -449295.17042193 eV
  | Hartree energy correction     :           7.15799229 Ha         194.77888037 eV
  | vdW energy correction         :           0.00000000 Ha           0.00000000 eV
  | Entropy correction            :          -0.00004178 Ha          -0.00113701 eV
  | ---------------------------
  | Total energy                  :      -39979.90479344 Ha    -1087908.56160779 eV
  | Total energy, T -> 0          :      -39979.90483523 Ha    -1087908.56274480 eV  <-- do not rely on this value for anything but (periodic) metals
  | Electronic free energy        :      -39979.90487701 Ha    -1087908.56388181 eV

  Derived energy quantities:
  | Kinetic energy                :       41145.64583763 Ha     1119629.98938862 eV
  | Electrostatic energy          :      -79841.22422364 Ha    -2172590.25130021 eV
  | Energy correction for multipole
  | error in Hartree potential    :          -0.00528747 Ha          -0.14387931 eV
  | Sum of eigenvalues per atom                           :      -54115.15162932 eV
  | Total energy (T->0) per atom                          :      -90659.04689540 eV  <-- do not rely on this value for anything but (periodic) metals
  | Electronic free energy per atom                       :      -90659.04699015 eV

  Self-consistency convergence accuracy:
  | Change of charge density      :  0.5259E-03
  | Change of sum of eigenvalues  : -0.2315E+00 eV
  | Change of total energy        :  0.3055E-06 eV

  End self-consistency iteration #    13       :  max(cpu_time)    wall_clock(cpu1)
  | Time for this iteration                    :       12.634 s          12.634 s
  | Charge density update                      :        5.404 s           5.404 s
  | Density mixing & preconditioning           :        0.848 s           0.848 s
  | Hartree multipole update                   :        0.004 s           0.004 s
  | Hartree multipole summation                :        1.714 s           1.714 s
  | Integration                                :        2.634 s           2.635 s
  | Solution of K.-S. eqns.                    :        2.025 s           2.025 s
  | Total energy evaluation                    :        0.003 s           0.003 s

  Partial memory accounting:
  | Current value for overall tracked memory usage:
  |   Minimum:       48.601 MB (on task  0)
  |   Maximum:       50.700 MB (on task  1)
  |   Average:       49.738 MB
  | Peak value for overall tracked memory usage:
  |   Minimum:       62.145 MB (on task 23 after allocating wave)
  |   Maximum:       64.751 MB (on task  2 after allocating wave)
  |   Average:       63.530 MB
  | Largest tracked array allocation so far:
  |   Minimum:       27.293 MB (KS_eigenvector_complex on task  0)
  |   Maximum:       29.393 MB (KS_eigenvector_complex on task  1)
  |   Average:       28.431 MB
  Note:  These values currently only include a subset of arrays which are explicitly tracked.
  The "true" memory usage will be greater.
------------------------------------------------------------

------------------------------------------------------------
          Begin self-consistency iteration #   14

  Date     :  20200420, Time     :  113753.094
------------------------------------------------------------
  Evaluating new KS density using the density matrix
  Evaluating density matrix
  Time summed over all CPUs for getting density from density matrix: real work      119.892 s, elapsed      121.727 s
  Integration grid: deviation in total charge (<rho> - N_e) =  -3.029754E-10
  Pulay mixing of updated and previous charge densities.
  Renormalizing the density to the exact electron count on the 3D integration grid.
  | Formal number of electrons (from input files) :     456.0000000000
  | Integrated number of electrons on 3D grid     :     456.0000083799
  | Charge integration error                      :       0.0000083799
  | Normalization factor for density and gradient :       0.9999999816

  Evaluating partitioned Hartree potential by multipole expansion.
  | Original multipole sum: apparent total charge =   0.456885E-12
  | Sum of charges compensated after spline to logarithmic grids =   0.895979E-07
  | Analytical far-field extrapolation by fixed multipoles:
  | Hartree multipole sum: apparent total charge =   0.457140E-12
  Summing up the Hartree potential.
  Time summed over all CPUs for potential: real work       40.043 s, elapsed       40.751 s
  | RMS charge density error from multipole expansion :   0.760052E-02
  | Average real-space part of the electrostatic potential :     -0.00940524 eV

  Integrating Hamiltonian matrix: batch-based integration.
  Time summed over all CPUs for integration: real work       61.250 s, elapsed       62.026 s

  Updating Kohn-Sham eigenvalues and eigenvectors using ELSI and the (modified) LAPACK eigensolver.
  Starting LAPACK eigensolver
  Finished Cholesky decomposition
  | Time :     0.011 s
  Finished transformation to standard eigenproblem
  | Time :     0.020 s
  Finished solving standard eigenproblem
  | Time :     0.072 s
  Finished back-transformation of eigenvectors
  | Time :     0.009 s

  Obtaining occupation numbers and chemical potential using ELSI.
  | Chemical potential (Fermi level):    -4.82046450 eV
  What follows are estimated values for band gap, HOMO, LUMO, etc.
  | They are estimated on a discrete k-point grid and not necessarily exact.
  | For converged numbers, create a DOS and/or band structure plot on a denser k-grid.

  Highest occupied state (VBM) at     -4.82380131 eV (relative to internal zero)
  | Occupation number:      1.07519209
  | K-point:       6 at    0.000000    0.111111    0.125000 (in units of recip. lattice)

  Lowest unoccupied state (CBM) at    -4.80756653 eV (relative to internal zero)
  | Occupation number:      0.71525346
  | K-point:      38 at    0.111111    0.000000    0.125000 (in units of recip. lattice)

  ESTIMATED overall HOMO-LUMO gap:      0.01623478 eV between HOMO at k-point 6 and LUMO at k-point 38
  | This appears to be an indirect band gap.
  | Smallest direct gap :      0.14228341 eV for k_point 230 at    0.111111    0.000000    0.125000 (in units of recip. lattice)
  However, this system has fractional occupation numbers. Since we use a finite k-point grid,
  this material is metallic within the approximate finite broadening function (occupation_type)
  applied to determine the occupation numbers.

  Total energy components:
  | Sum of eigenvalues            :      -23864.34428322 Ha     -649381.84813100 eV
  | XC energy correction          :       -1284.32636234 Ha      -34948.29846919 eV
  | XC potential correction       :        1672.90082193 Ha       45521.94749589 eV
  | Free-atom electrostatic energy:      -16511.29402923 Ha     -449295.17042193 eV
  | Hartree energy correction     :           7.15905943 Ha         194.80791877 eV
  | vdW energy correction         :           0.00000000 Ha           0.00000000 eV
  | Entropy correction            :          -0.00004178 Ha          -0.00113699 eV
  | ---------------------------
  | Total energy                  :      -39979.90479343 Ha    -1087908.56160747 eV
  | Total energy, T -> 0          :      -39979.90483522 Ha    -1087908.56274446 eV  <-- do not rely on this value for anything but (periodic) metals
  | Electronic free energy        :      -39979.90487700 Ha    -1087908.56388145 eV

  Derived energy quantities:
  | Kinetic energy                :       41145.64621160 Ha     1119629.99956480 eV
  | Electrostatic energy          :      -79841.22464269 Ha    -2172590.26270307 eV
  | Energy correction for multipole
  | error in Hartree potential    :          -0.00528618 Ha          -0.14384427 eV
  | Sum of eigenvalues per atom                           :      -54115.15401092 eV
  | Total energy (T->0) per atom                          :      -90659.04689537 eV  <-- do not rely on this value for anything but (periodic) metals
  | Electronic free energy per atom                       :      -90659.04699012 eV

  Self-consistency convergence accuracy:
  | Change of charge density      :  0.1862E-03
  | Change of sum of eigenvalues  : -0.2858E-01 eV
  | Change of total energy        :  0.3223E-06 eV

  End self-consistency iteration #    14       :  max(cpu_time)    wall_clock(cpu1)
  | Time for this iteration                    :       12.617 s          12.618 s
  | Charge density update                      :        5.398 s           5.398 s
  | Density mixing & preconditioning           :        0.868 s           0.868 s
  | Hartree multipole update                   :        0.004 s           0.005 s
  | Hartree multipole summation                :        1.715 s           1.714 s
  | Integration                                :        2.609 s           2.609 s
  | Solution of K.-S. eqns.                    :        2.020 s           2.020 s
  | Total energy evaluation                    :        0.003 s           0.003 s

  Partial memory accounting:
  | Current value for overall tracked memory usage:
  |   Minimum:       48.601 MB (on task  0)
  |   Maximum:       50.700 MB (on task  1)
  |   Average:       49.738 MB
  | Peak value for overall tracked memory usage:
  |   Minimum:       62.145 MB (on task 23 after allocating wave)
  |   Maximum:       64.751 MB (on task  2 after allocating wave)
  |   Average:       63.530 MB
  | Largest tracked array allocation so far:
  |   Minimum:       27.293 MB (KS_eigenvector_complex on task  0)
  |   Maximum:       29.393 MB (KS_eigenvector_complex on task  1)
  |   Average:       28.431 MB
  Note:  These values currently only include a subset of arrays which are explicitly tracked.
  The "true" memory usage will be greater.
------------------------------------------------------------

------------------------------------------------------------
          Begin self-consistency iteration #   15

  Date     :  20200420, Time     :  113805.713
------------------------------------------------------------
  Evaluating new KS density using the density matrix
  Evaluating density matrix
  Time summed over all CPUs for getting density from density matrix: real work      119.936 s, elapsed      121.709 s
  Integration grid: deviation in total charge (<rho> - N_e) =  -3.029754E-10
  Pulay mixing of updated and previous charge densities.
  Renormalizing the density to the exact electron count on the 3D integration grid.
  | Formal number of electrons (from input files) :     456.0000000000
  | Integrated number of electrons on 3D grid     :     456.0000025810
  | Charge integration error                      :       0.0000025810
  | Normalization factor for density and gradient :       0.9999999943

  Evaluating partitioned Hartree potential by multipole expansion.
  | Original multipole sum: apparent total charge =   0.490617E-12
  | Sum of charges compensated after spline to logarithmic grids =   0.894824E-07
  | Analytical far-field extrapolation by fixed multipoles:
  | Hartree multipole sum: apparent total charge =   0.490623E-12
  Summing up the Hartree potential.
  Time summed over all CPUs for potential: real work       40.020 s, elapsed       40.720 s
  | RMS charge density error from multipole expansion :   0.760058E-02
  | Average real-space part of the electrostatic potential :     -0.00940846 eV

  Integrating Hamiltonian matrix: batch-based integration.
