------------------------------------------------------------
          Invoking FHI-aims ...

          When using FHI-aims, please cite the following reference:

          Volker Blum, Ralf Gehrke, Felix Hanke, Paula Havu,
          Ville Havu, Xinguo Ren, Karsten Reuter, and Matthias Scheffler,
          'Ab Initio Molecular Simulations with Numeric Atom-Centered Orbitals',
          Computer Physics Communications 180, 2175-2196 (2009)

          For any questions about FHI-aims, please visit the aimsclub website
          with its forums and wiki. Contributions to both the forums and the
          wiki are warmly encouraged - they are for you, and everyone is welcome there.

------------------------------------------------------------



  Date     :  20200420, Time     :  113502.814
  Time zero on CPU 1             :   0.101380000000000E+00  s.
  Internal wall clock time zero  :           356614502.814  s.

  FHI-aims created a unique identifier for this run for later identification
  aims_uuid : 785493A8-3679-4CF9-A66D-013B7522C0C6

  Build configuration of the current instance of FHI-aims
  -------------------------------------------------------
  FHI-aims version      : 200112
  Commit number         : 23daeca3f
  CMake host system     : Linux-3.10.0-693.21.1.el7.x86_64
  CMake version         : 3.13.3
  Fortran compiler      : /sw/installed/impi/2018.4.274-iccifort-2019.1.144-GCC-8.2.0-2.31.1/bin64/mpiifort (Intel) version 19.0.0.20181018
  Fortran compiler flags: -O3 -ip -fp-model precise
  C compiler            : /sw/installed/impi/2018.4.274-iccifort-2019.1.144-GCC-8.2.0-2.31.1/bin64/mpiicc (Intel) version 19.0.0.20181018
  C compiler flags      : -O3 -ip -fp-model precise
  Architecture          :
  Using MPI
  Using Scalapack
  Using C files
  Using LibXC
  Using SPGlib
  Using i-PI
  Using RLSY
  Linking against: /sw/installed/imkl/2019.1.144-iimpi-2019a/mkl/lib/intel64/libmkl_intel_lp64.so
                   /sw/installed/imkl/2019.1.144-iimpi-2019a/mkl/lib/intel64/libmkl_sequential.so
                   /sw/installed/imkl/2019.1.144-iimpi-2019a/mkl/lib/intel64/libmkl_core.so
                   /sw/installed/imkl/2019.1.144-iimpi-2019a/mkl/lib/intel64/libmkl_blacs_intelmpi_lp64.so
                   /sw/installed/imkl/2019.1.144-iimpi-2019a/mkl/lib/intel64/libmkl_scalapack_lp64.so

  Using       24 parallel tasks.
  Task        0 on host taurusi6488.taurus.hrsk.tu-dresden.de reporting.
  Task        1 on host taurusi6488.taurus.hrsk.tu-dresden.de reporting.
  Task        2 on host taurusi6488.taurus.hrsk.tu-dresden.de reporting.
  Task        3 on host taurusi6488.taurus.hrsk.tu-dresden.de reporting.
  Task        4 on host taurusi6488.taurus.hrsk.tu-dresden.de reporting.
  Task        5 on host taurusi6488.taurus.hrsk.tu-dresden.de reporting.
  Task        6 on host taurusi6488.taurus.hrsk.tu-dresden.de reporting.
  Task        7 on host taurusi6488.taurus.hrsk.tu-dresden.de reporting.
  Task        8 on host taurusi6488.taurus.hrsk.tu-dresden.de reporting.
  Task        9 on host taurusi6488.taurus.hrsk.tu-dresden.de reporting.
  Task       10 on host taurusi6488.taurus.hrsk.tu-dresden.de reporting.
  Task       11 on host taurusi6488.taurus.hrsk.tu-dresden.de reporting.
  Task       12 on host taurusi6488.taurus.hrsk.tu-dresden.de reporting.
  Task       13 on host taurusi6488.taurus.hrsk.tu-dresden.de reporting.
  Task       14 on host taurusi6488.taurus.hrsk.tu-dresden.de reporting.
  Task       15 on host taurusi6488.taurus.hrsk.tu-dresden.de reporting.
  Task       16 on host taurusi6488.taurus.hrsk.tu-dresden.de reporting.
  Task       17 on host taurusi6488.taurus.hrsk.tu-dresden.de reporting.
  Task       18 on host taurusi6488.taurus.hrsk.tu-dresden.de reporting.
  Task       19 on host taurusi6488.taurus.hrsk.tu-dresden.de reporting.
  Task       20 on host taurusi6488.taurus.hrsk.tu-dresden.de reporting.
  Task       21 on host taurusi6488.taurus.hrsk.tu-dresden.de reporting.
  Task       22 on host taurusi6488.taurus.hrsk.tu-dresden.de reporting.
  Task       23 on host taurusi6488.taurus.hrsk.tu-dresden.de reporting.

  Performing system and environment tests:
  | Environment variable OMP_NUM_THREADS correctly set to 1.
  | Maximum stacksize for task 0: unlimited
  | Maximum stacksize for task 1: unlimited
  | Maximum stacksize for task 2: unlimited
  | Maximum stacksize for task 3: unlimited
  | Maximum stacksize for task 4: unlimited
  | Maximum stacksize for task 5: unlimited
  | Maximum stacksize for task 6: unlimited
  | Maximum stacksize for task 7: unlimited
  | Maximum stacksize for task 8: unlimited
  | Maximum stacksize for task 9: unlimited
  | Maximum stacksize for task 10: unlimited
  | Maximum stacksize for task 11: unlimited
  | Maximum stacksize for task 12: unlimited
  | Maximum stacksize for task 13: unlimited
  | Maximum stacksize for task 14: unlimited
  | Maximum stacksize for task 15: unlimited
  | Maximum stacksize for task 16: unlimited
  | Maximum stacksize for task 17: unlimited
  | Maximum stacksize for task 18: unlimited
  | Maximum stacksize for task 19: unlimited
  | Maximum stacksize for task 20: unlimited
  | Maximum stacksize for task 21: unlimited
  | Maximum stacksize for task 22: unlimited
  | Maximum stacksize for task 23: unlimited
  | Current stacksize for task 0: unlimited
  | Current stacksize for task 1: unlimited
  | Current stacksize for task 2: unlimited
  | Current stacksize for task 3: unlimited
  | Current stacksize for task 4: unlimited
  | Current stacksize for task 5: unlimited
  | Current stacksize for task 6: unlimited
  | Current stacksize for task 7: unlimited
  | Current stacksize for task 8: unlimited
  | Current stacksize for task 9: unlimited
  | Current stacksize for task 10: unlimited
  | Current stacksize for task 11: unlimited
  | Current stacksize for task 12: unlimited
  | Current stacksize for task 13: unlimited
  | Current stacksize for task 14: unlimited
  | Current stacksize for task 15: unlimited
  | Current stacksize for task 16: unlimited
  | Current stacksize for task 17: unlimited
  | Current stacksize for task 18: unlimited
  | Current stacksize for task 19: unlimited
  | Current stacksize for task 20: unlimited
  | Current stacksize for task 21: unlimited
  | Current stacksize for task 22: unlimited
  | Current stacksize for task 23: unlimited
  | Checking for scalapack...
  | Testing pdtran()...
  | All pdtran() tests passed.

  Obtaining array dimensions for all initial allocations:
  
  -----------------------------------------------------------------------
  Parsing control.in (first pass over file, find array dimensions only).
  The contents of control.in will be repeated verbatim below
  unless switched off by setting 'verbatim_writeout .false.' .
  in the first line of control.in .
  -----------------------------------------------------------------------
  
  #===============================================================================
  # FHI-aims file: ./control.in
  # Created using the Atomic Simulation Environment (ASE)
  # Thu Apr  2 11:27:09 2020
  #===============================================================================
  xc                                 pbe
  # include_spin_orbit
  # vdw_correction_hirshfeld
  many_body_dispersion_nl 	 beta=0.81
  spin                               none
  k_grid 	 	 4 4 4
  relativistic                       atomic_zora scalar
  energy_tolerance 1e-2
  harmonic_length_scale  0.015
  ### SCF settings
  adjust_scf 	 always 	 3
  # frozen_core_scf 	 .true.
  # charge_mix_param  0.05
  # occupation_type 	 gaussian 	 0.01
  # sc_accuracy_eev   1E-3 	 	 # sum of eigenvalues convergence
  # sc_accuracy_etot  1E-6 	 	 # total energy convergence
  # sc_accuracy_rho   1E-3 	 	 # electron density convergence
  # elsi_restart 	 read_and_write 	 1000
  ### geometry optimisation section
  relax_geometry 	 bfgs 	 1E-2
  relax_unit_cell 	 full
  #===============================================================================
  
  ################################################################################
  #
  #  FHI-aims code project
  # Volker Blum, Fritz Haber Institute Berlin, 2009
  #
  #  Suggested "tight" defaults for Pd atom (to be pasted into control.in file)
  #
  ################################################################################
    species        Pd
  #     global species definitions
      nucleus             46
      mass                106.42
  #
      l_hartree           6
  #
      cut_pot             4.0  2.0  1.0
      basis_dep_cutoff    1e-4
  #
      radial_base         62 7.0
      radial_multiplier   2
      angular_grids specified
        division   0.3627   50
        division   0.7349  110
        division   1.0624  194
        division   1.2496  302
        division   1.6740  434
  #      division   2.0126  590
  #      division   2.0830  770
  #      division   2.7936 1202
  #       outer_grid  974
        outer_grid  434
  ################################################################################
  #
  #  Definition of "minimal" basis
  #
  ################################################################################
  #     valence basis states
      valence      5  s   1.
      valence      4  p   6.
      valence      4  d   9.
  #     ion occupancy
      ion_occ     5  s   0.
      ion_occ     4  p   6.
      ion_occ     4  d   8.
  ################################################################################
  #
  #  Suggested additional basis functions. For production calculations,
  #  uncomment them one after another (the most important basis functions are
  #  listed first).
  #
  #  Constructed for dimers: 2.0 A, 2.275 A, 2.75 A, 3.75 A
  #
  ################################################################################
  #  "First tier" - max. impr. -120.76  meV, min. impr. -5.71 meV
       ionic 5 p auto
       hydro 4 f 8
       hydro 5 g 10
       hydro 3 s 2.6
       hydro 3 d 2.5
  #  "Second tier" - max. impr. -5.00  meV, min. impr. -0.62 meV
  #     hydro 5 f 17.2
  #     hydro 6 h 14
  #     hydro 4 d 4
  #     hydro 5 f 7.6
  #     hydro 3 p 3.3
  #     hydro 4 s 9.4
  #  "Third tier" - max. impr. -0.54  meV, min. impr. -0.14 meV
  #     hydro 4 f 20
  #     hydro 5 g 12.8
  #     hydro 5 d 9.8
  #     hydro 6 h 15.2
  #     hydro 5 s 10
  #     hydro 6 p 9.8
  #  "Fourth tier" - max. impr. -0.15  meV, min. impr. -0.05 meV
  #     hydro 5 f 9.2
  #     hydro 2 s 5.6
  #     hydro 5 f 43.2
  #     hydro 5 d 13.2
  #     hydro 5 g 14
  #     hydro 4 p 4.7
  ################################################################################
  #
  #  FHI-aims code project
  # Volker Blum, Fritz Haber Institute Berlin, 2009
  #
  #  Suggested "tight" defaults for Se atom (to be pasted into control.in file)
  #
  ################################################################################
    species        Se
  #     global species definitions
      nucleus             34
      mass                78.96
  #
      l_hartree           6
  #
      cut_pot             4.0          2.0  1.0
      basis_dep_cutoff    1e-4
  #
      radial_base         55 7.0
      radial_multiplier   2
      angular_grids       specified
        division   0.0830  110
        division   0.1357  194
        division   0.7377  302
        division   0.8610  434
  #      division   0.9640  590
  #      division   1.0773  770
  #      division   2.5539  974
  #      outer_grid  974
        outer_grid  434
  ################################################################################
  #
  #  Definition of "minimal" basis
  #
  ################################################################################
  #     valence basis states
      valence      4  s   2.
      valence      4  p   4.
      valence      3  d  10.
  #     ion occupancy
      ion_occ      4  s   1.
      ion_occ      4  p   3.
      ion_occ      3  d  10.
  ################################################################################
  #
  #  Suggested additional basis functions. For production calculations,
  #  uncomment them one after another (the most important basis functions are
  #  listed first).
  #
  #  Constructed for dimers: 1.85 A, 2.15 A, 2.50 A, 3.00 A, 4.00 A
  #
  ################################################################################
  #  "First tier" - improvements: -336.21 meV to -36.85 meV
       hydro 3 d 4.3
       hydro 2 p 1.6
       hydro 4 f 7.2
       ionic 4 s auto
  #  "Second tier" - improvements: -14.39 meV to -1.49 meV
  #     hydro 5 g 10.4
  #     hydro 4 p 4.5
  #     hydro 4 d 6.2
  #     hydro 4 f 11.2
  #     hydro 1 s 0.65
  #     hydro 6 h 15.2
  #  "Third tier" - improvements: -0.46 meV and below
  #     hydro 5 g 14.4
  #     ionic 4 d auto
  #     hydro 4 f 22.4
  #     hydro 5 f 7.4
  #     hydro 5 p 8
  #     hydro 5 s 9.4
  #  "Fourth tier" - improvements: -0.12 meV and below
  #     hydro 5 d 11.6
  #     hydro 6 h 18
  #     hydro 4 p 4
  #     hydro 5 f 16
  #     hydro 4 s 3.9
  #
  #
  
  -----------------------------------------------------------------------
  Completed first pass over input file control.in .
  -----------------------------------------------------------------------
  
  
  -----------------------------------------------------------------------
  Parsing geometry.in (first pass over file, find array dimensions only).
  The contents of geometry.in will be repeated verbatim below
  unless switched off by setting 'verbatim_writeout .false.' .
  in the first line of geometry.in .
  -----------------------------------------------------------------------
  
  #
  # This is the geometry file that corresponds to the current relaxation step.
  # If you do not want this file to be written, set the "write_restart_geometry" flag to .false.
  #  aims_uuid : 5032033B-C3B7-47C3-AEDF-533428C06DC2
  #
  lattice_vector      5.82214278      0.00000000      0.00000000
  lattice_vector      0.00000000      5.94372874      0.00000000
  lattice_vector      0.00000000      0.00000000      7.59427340
  atom_frac       0.50169042      0.00139316      0.00116624 Pd
  atom_frac       0.00136308      0.00135496      0.50197699 Pd
  atom_frac       0.00147420      0.50172051      0.00119051 Pd
  atom_frac       0.50179270      0.50168462      0.50195253 Pd
  atom_frac       0.61316508      0.11977577      0.40490907 Se
  atom_frac       0.89066733      0.88375867      0.90502477 Se
  atom_frac       0.11283281      0.38343809      0.59881148 Se
  atom_frac       0.39030782      0.62011771      0.09822807 Se
  atom_frac       0.39034354      0.88377794      0.59880932 Se
  atom_frac       0.11286676      0.11975842      0.09824965 Se
  atom_frac       0.89063682      0.62010118      0.40491039 Se
  atom_frac       0.61312915      0.38338869      0.90504072 Se
  #
  # What follows is the current estimated Hessian matrix constructed by the BFGS algorithm.
  # This is NOT the true Hessian matrix of the system.
  # If you do not want this information here, switch it off using the "hessian_to_restart_geometry" keyword.
  #
  trust_radius             0.0116004111
  hessian_block                1       1           5.883863           0.087259          -2.193914           0.087259           6.45166
  hessian_block                1       2           0.026259           0.519053           0.028399           0.210555           0.51079
  hessian_block                1       3          -0.027183           0.636586           0.071418          -0.107485          -0.17337
  hessian_block                1       4           0.451838           0.235877          -0.072221          -0.065548          -0.26584
  hessian_block                1       5          -0.084272          -0.450611          -0.194317          -0.356730           0.21329
  hessian_block                1       6          -1.676528           0.006500           0.689706           0.543169          -0.59790
  hessian_block                1       7          -0.260954           0.237064           0.267246           0.288112           0.18187
  hessian_block                1       8          -0.163813          -0.632616           0.302382          -0.300335          -2.10250
  hessian_block                1       9          -0.090672          -0.035499           0.139473          -0.282841          -0.49629
  hessian_block                1      10          -2.372013           0.798437           0.988288          -0.056380          -0.16094
  hessian_block                1      11          -0.041542          -0.505219          -0.172172           0.214919          -0.13522
  hessian_block                1      12          -0.079072          -0.896830           0.145711          -0.174696          -1.77851
  hessian_block                2       2           6.040014           0.501911           2.424666           0.501911           6.24925
  hessian_block                2       3           0.927528           0.983922           0.564795          -0.372037          -0.34952
  hessian_block                2       4           0.253556           0.573365           0.158895          -0.302277          -0.44397
  hessian_block                2       5          -2.027914          -0.070110          -1.038846           0.488053          -0.17895
  hessian_block                2       6          -0.558306          -0.366970          -0.211257          -0.460438          -0.47451
  hessian_block                2       7          -0.109669          -0.373727          -0.238492          -0.574900          -1.49813
  hessian_block                2       8          -0.368759          -0.572929          -0.375162          -0.068866           0.09754
  hessian_block                2       9          -2.105612           0.307896          -0.979700           0.491773          -0.23873
  hessian_block                2      10           0.481602           0.269027           0.400599           0.426793           0.35013
  hessian_block                2      11          -0.483978          -0.937952          -0.331243          -0.610434          -2.25227
  hessian_block                2      12          -0.508810          -0.524989          -0.280901          -0.038633          -0.12460
  hessian_block                3       3           6.647959          -0.471548           2.554796          -0.471548           6.17069
  hessian_block                3       4           0.364722          -0.283204          -0.034622          -0.162738           0.15552
  hessian_block                3       5          -0.557879           0.068750          -0.344025          -0.064141           0.27139
  hessian_block                3       6          -0.961565           0.621167          -0.609185          -0.249148          -1.70824
  hessian_block                3       7           0.060271           0.108754           0.264483          -0.030252           0.04875
  hessian_block                3       8          -2.291180          -0.193446          -0.955455          -0.747698          -0.37480
  hessian_block                3       9          -0.336024           0.376085           0.066109          -0.225301          -0.10170
  hessian_block                3      10           0.639462           0.429487           0.313474           1.359759          -2.14467
  hessian_block                3      11          -0.459737           0.103631          -0.225060          -0.518512          -0.01171
  hessian_block                3      12          -2.440462          -0.280154          -1.109075          -0.510929          -0.13528
  hessian_block                4       4           5.915346           0.078795          -1.983002           0.078795           5.78106
  hessian_block                4       5          -0.497985           0.461021           0.170867           0.179728          -1.83257
  hessian_block                4       6          -0.111327           0.259391           0.013662          -0.217916           0.15268
  hessian_block                4       7          -1.927527          -0.515320           0.802716          -0.201446           0.03766
  hessian_block                4       8          -0.279179          -0.111590          -0.150407           0.115621           0.10011
  hessian_block                4       9          -0.248449           0.646281           0.159448           0.104950          -1.55324
  hessian_block                4      10          -0.335799          -0.033919           0.007076          -0.190168           0.10369
  hessian_block                4      11          -1.929354          -0.368625           0.783601          -0.740163          -0.34711
  hessian_block                4      12          -0.089934           0.114528          -0.084189           0.344560          -0.24096
  hessian_block                5       5           5.267667          -0.489946          -1.178369          -0.489946           5.85160
  hessian_block                5       6           0.409761          -0.146338          -0.253431           0.401509          -0.25651
  hessian_block                5       7          -0.357511           0.870680          -0.090446          -0.714762           0.23350
  hessian_block                5       8           0.180586           0.050321           0.305773           0.497418          -0.40938
  hessian_block                5       9          -1.329090          -0.406001           1.685061          -0.179754          -1.79047
  hessian_block                5      10          -0.240884           0.387082           0.205871          -0.153703           0.33774
  hessian_block                5      11           0.512039          -0.642681           0.081707           0.993353          -0.62363
  hessian_block                5      12           0.291392           0.129971          -0.396223          -0.363164          -0.16897
  hessian_block                6       6           5.300544           0.411679           2.070460           0.411679           5.48779
  hessian_block                6       7           0.061841          -0.253462          -0.194902           0.234965          -0.06848
  hessian_block                6       8           0.121695           0.372025           0.383153           0.254879           0.04870
  hessian_block                6       9           0.084044           0.100484           0.033868           0.060325           0.28613
  hessian_block                6      10          -1.787076          -1.475318          -3.458089          -1.377018          -1.76108
  hessian_block                6      11           0.109792           0.426726          -0.066141          -0.042849           0.36747
  hessian_block                6      12           0.573035           0.400689           0.548553           0.084267           0.17096
  hessian_block                7       7           5.163845           0.489889           0.882385           0.489889           5.83006
  hessian_block                7       8          -0.075937          -0.002168           0.085893          -0.276497          -0.40186
  hessian_block                7       9           0.359521           0.603146          -0.187716          -0.723107          -0.89066
  hessian_block                7      10           0.130414          -0.666468          -0.288787           0.303762          -0.37397
  hessian_block                7      11          -1.563409           0.396604          -1.390206           0.257154          -2.05645
  hessian_block                7      12           0.085023           0.177279           0.523844          -0.125190           0.60474
  hessian_block                8       8           4.814558           0.050969          -0.881126           0.050969           5.33823
  hessian_block                8       9           0.254753          -0.427619          -0.199514           0.206576           0.03999
  hessian_block                8      10          -0.188559          -0.342614           0.233930          -0.596730          -0.13382
  hessian_block                8      11           0.290774           0.159003           0.024744           0.448324           0.56301
  hessian_block                8      12          -0.729027           1.085739           1.652737           0.981264          -1.11819
  hessian_block                9       9           5.034951          -0.508722          -0.759501          -0.508722           5.66600
  hessian_block                9      10          -0.049605           0.239393          -0.118835          -0.201451           0.28744
  hessian_block                9      11          -0.143585           0.814034           0.018486          -0.631401           0.43890
  hessian_block                9      12           0.135678           0.002673           0.621954           0.176801          -0.00034
  hessian_block               10      10           5.910676           1.080709           2.233212           1.080709           6.51647
  hessian_block               10      11           0.014531          -0.185266           0.236784          -0.212191          -0.73783
  hessian_block               10      12          -0.636838          -0.410308          -0.409394          -0.473625          -0.63612
  hessian_block               11      11           5.175882           0.732791           0.770081           0.732791           6.50122
  hessian_block               11      12           0.084495           0.109010          -0.388030           0.006955          -0.05933
  hessian_block               12      12           4.880427           0.092391          -0.824988           0.092391           5.13365
  hessian_block_lv             1       1          27.772533          -1.693034           5.507052          -1.693034          24.53690
  hessian_block_lv_atom        1       1          -0.087325          -0.139744          -0.027724          -0.458524          -0.50109
  hessian_block_lv_atom        1       2          -0.680216          -0.857066          -0.265698          -0.336290          -0.61047
  hessian_block_lv_atom        1       3          -0.719761          -0.894625          -0.302304           0.205641           0.32545
  hessian_block_lv_atom        1       4          -0.107672          -0.099680          -0.040444           0.282089           0.15059
  hessian_block_lv_atom        1       5           0.259235           0.276480           0.327224           0.158830           0.14825
  hessian_block_lv_atom        1       6          -0.023101          -0.078776          -0.209590          -0.124542           0.13342
  hessian_block_lv_atom        1       7          -0.257964          -0.282440           0.181706          -0.686235          -0.68809
  hessian_block_lv_atom        1       8           0.250096           0.303642          -0.145217           0.651709           0.65919
  hessian_block_lv_atom        1       9           0.229095           0.291413          -0.171369          -0.241727          -0.06883
  hessian_block_lv_atom        1      10           0.357198           0.608342           0.388847           0.131593          -0.20108
  hessian_block_lv_atom        1      11           0.559479           0.671060          -0.031159           0.805978           1.05776
  hessian_block_lv_atom        1      12           0.220937           0.201392           0.295730          -0.388523          -0.40512
  symmetry_n_params 39 3 36
  symmetry_params a1 b2 c3 x0 x1 x2 x3 x4 x5 x6 x7 x8 x9 x10 x11 x12 x13 x14 x15 x16 x17 x18 x19 x20 x21 x22 x23 x24 x25 x26 x27 x28 x
  symmetry_lv a1 , 0 , 0
  symmetry_lv 0 , b2 , 0
  symmetry_lv 0 , 0 , c3
  symmetry_frac x0 , x1 , x2
  symmetry_frac x3 , x4 , x5
  symmetry_frac x6 , x7 , x8
  symmetry_frac x9 , x10 , x11
  symmetry_frac x12 , x13 , x14
  symmetry_frac x15 , x16 , x17
  symmetry_frac x18 , x19 , x20
  symmetry_frac x21 , x22 , x23
  symmetry_frac x24 , x25 , x26
  symmetry_frac x27 , x28 , x29
  symmetry_frac x30 , x31 , x32
  symmetry_frac x33 , x34 , x35
  
  -----------------------------------------------------------------------
  Completed first pass over input file geometry.in .
  -----------------------------------------------------------------------
  

  Basic array size parameters:
  | Number of species                 :        2
  | Number of atoms                   :       12
  | Number of lattice vectors         :        3
  | Max. basis fn. angular momentum   :        4
  | Max. atomic/ionic basis occupied n:        5
  | Max. number of basis fn. types    :        3
  | Max. radial fns per species/type  :       10
  | Max. logarithmic grid size        :     1444
  | Max. radial integration grid size :      125
  | Max. angular integration grid size:      434
  | Max. angular grid division number :        8
  | Radial grid for Hartree potential :     1444
  | Number of spin channels           :        1

------------------------------------------------------------
          Reading file control.in.
------------------------------------------------------------
  XC: Using PBE gradient-corrected functionals.
  Using libMBD for calculating MBD and TS energies
  Spin treatment: No spin polarisation.
  Found k-point grid:         4         4         4
  Scalar relativistic treatment of kinetic energy: on-site free-atom approximation to ZORA.
  Max energy increase before discarding BFGS move:   0.100000E-01 eV
  Assuming qualitatively harmonic for steps shorter than   0.150000E-01 A.
  S.C.F. convergence parameters will be adjusted in iteration number     3 of each new s.c.f. cycle.
  Geometry relaxation: Modified BFGS - TRM (trust radius method) for lattice optimization.
  Convergence accuracy for geometry relaxation: Maximum force <   0.100000E-01 eV/A.
 
  Reading configuration options for species Pd                  .
  | Found nuclear charge :  46.0000
  | Found atomic mass :    106.420000000000      amu
  | Found l_max for Hartree potential  :   6
  | Found cutoff potl. onset [A], width [A], scale factor :    4.00000    2.00000    1.00000
  | Threshold for basis-dependent cutoff potential is   0.100000E-03
  | Found data for basic radial integration grid :    62 points, outermost radius =    7.000 A
  | Found multiplier for basic radial grid :   2
  | Found angular grid specification: user-specified.
  | Specified grid contains     6 separate shells.
  | Check grid settings after all constraints further below.
  | Found free-atom valence shell :  5 s   1.000
  | Found free-atom valence shell :  4 p   6.000
  | Found free-atom valence shell :  4 d   9.000
  | Found free-ion valence shell :  5 s   0.000
  | Found free-ion valence shell :  4 p   6.000
  | Found free-ion valence shell :  4 d   8.000
  | Found ionic basis function :  5 p , default cutoff radius.
  | Found hydrogenic basis function :  4 f   8.000
  | Found hydrogenic basis function :  5 g  10.000
  | Found hydrogenic basis function :  3 s   2.600
  | Found hydrogenic basis function :  3 d   2.500
  Species Pd                  : Missing cutoff potential type.
  Defaulting to exp(1/x)/(1-x)^2 type cutoff potential.
  Species Pd: No 'logarithmic' tag. Using default grid for free atom:
  | Default logarithmic grid data [bohr] : 0.1000E-03 0.1000E+03 0.1012E+01
  | Will include ionic basis functions of  2.0-fold positive Pd                   ion.
  Species Pd: On-site basis accuracy parameter (for Gram-Schmidt orthonormalisation) not specified.
  Using default value basis_acc =  0.1000000E-03.
  Species Pd                  : Using default innermost maximum threshold i_radial=  2 for radial functions.
  Species Pd                  : Default cutoff onset for free atom density etc. : 0.40000000E+01 AA.
  Species Pd                  : Basic radial grid will be enhanced according to radial_multiplier =   2, to contain   125 grid points.
 
  Reading configuration options for species Se                  .
  | Found nuclear charge :  34.0000
  | Found atomic mass :    78.9600000000000      amu
  | Found l_max for Hartree potential  :   6
  | Found cutoff potl. onset [A], width [A], scale factor :    4.00000    2.00000    1.00000
  | Threshold for basis-dependent cutoff potential is   0.100000E-03
  | Found data for basic radial integration grid :    55 points, outermost radius =    7.000 A
  | Found multiplier for basic radial grid :   2
  | Found angular grid specification: user-specified.
  | Specified grid contains     5 separate shells.
  | Check grid settings after all constraints further below.
  | Found free-atom valence shell :  4 s   2.000
  | Found free-atom valence shell :  4 p   4.000
  | Found free-atom valence shell :  3 d  10.000
  | Found free-ion valence shell :  4 s   1.000
  | Found free-ion valence shell :  4 p   3.000
  | Found free-ion valence shell :  3 d  10.000
  | Found hydrogenic basis function :  3 d   4.300
  | Found hydrogenic basis function :  2 p   1.600
  | Found hydrogenic basis function :  4 f   7.200
  | Found ionic basis function :  4 s , default cutoff radius.
  Species Se                  : Missing cutoff potential type.
  Defaulting to exp(1/x)/(1-x)^2 type cutoff potential.
  Species Se: No 'logarithmic' tag. Using default grid for free atom:
  | Default logarithmic grid data [bohr] : 0.1000E-03 0.1000E+03 0.1012E+01
  | Will include ionic basis functions of  2.0-fold positive Se                   ion.
  Species Se: On-site basis accuracy parameter (for Gram-Schmidt orthonormalisation) not specified.
  Using default value basis_acc =  0.1000000E-03.
  Species Se                  : Using default innermost maximum threshold i_radial=  2 for radial functions.
  Species Se                  : Default cutoff onset for free atom density etc. : 0.40000000E+01 AA.
  Species Se                  : Basic radial grid will be enhanced according to radial_multiplier =   2, to contain   111 grid points.
 
  Finished reading input file 'control.in'. Consistency checks are next.
 
  MPI_IN_PLACE appears to work with this MPI implementation.
  | Keeping use_mpi_in_place .true. (see manual).
  Target number of points in a grid batch is not set. Defaulting to  100
  Method for grid partitioning is not set. Defaulting to parallel hash+maxmin partitioning.
  Batch size limit is not set. Defaulting to    200
  By default, will store active basis functions for each batch.
  If in need of memory, prune_basis_once .false. can be used to disable this option.
  communication_type for Hartree potential was not specified.
  Defaulting to calc_hartree .
  Defaulting to Pulay charge density mixer.
  Pulay mixer: Number of relevant iterations not set.
  Defaulting to    8 iterations.
  Pulay mixer: Number of initial linear mixing iterations not set.
  Defaulting to    0 iterations.
  Work space size for distributed Hartree potential not set.
  Defaulting to   0.200000E+03 MB.
  Mixing parameter for charge density mixing has not been set.
  Using default: charge_mix_param =     0.0500.
  The mixing parameter will be adjusted in iteration number     3 of each s.c.f. cycle (i.e., each geometry step).
  Algorithm-dependent basis array size parameters:
  | n_max_pulay                         :        8
  Maximum number of self-consistency iterations not provided.
  Presetting  1000 iterations.
  Presetting      1001 iterations before the initial mixing cycle
  is restarted anyway using the sc_init_iter criterion / keyword.
  Presetting a factor      1.000 between actual scf density residual
  and density convergence criterion sc_accuracy_rho below which sc_init_iter
  takes no effect.
 * No s.c.f. convergence criteria (sc_accuracy_*) were provided in control.in.
 * The run will proceed with a reasonable default guess, but please check whether.
 * the s.c.f. cycles seem to take too much or too little time.
  No maximum number of relaxation steps, defaulting to     1000
  Using explicit Hessian from geometry.in.
  Maximum energy tolerance by which TRM/BFGS trajectory may increase over multiple steps:   0.300000E-02
  No trust radius initializer. Defaulting to   0.200000E+00 A.
  Unit cell relaxation: Unit cell will be relaxed fully.
  Unit cell relaxation: Analytical stress will be used.
  Analytical stress will be computed.
  Analytical stress calculation: Only the upper triangle is calculated.
                                 Final output is symmetrized.
  Analytical stress calculation: scf convergence accuracy of stress not set.
                                 Analytical stress self-consistency will not be checked explicitly.
                                 Be sure to set other criteria like sc_accuracy_rho tight enough.
 * Notice: The s.c.f. convergence criterion sc_accuracy_rho was not provided.
 * We used to stop in this case, and ask the user to provide reasonable
 * scf convergence criteria. However, this led some users to employ criteria
 * that led to extremely long run times, e.g., for simple relaxation.
 * We now preset a default value for sc_accuracy_rho if it is not set.
 * You may still wish to check if this setting is too tight or too loose for your needs.
 * Based on n_atoms, FHI-aims chose sc_accuracy_rho =  0.141421E-05 .
  Force calculation: scf convergence accuracy of forces not set.
  Defaulting to 'sc_accuracy_forces not_checked'.
  Handling of forces: Unphysical translation and rotation will be removed from forces.
  No accuracy limit for integral partition fn. given. Defaulting to  0.1000E-14.
  No threshold value for u(r) in integrations given. Defaulting to  0.1000E-05.
  No occupation type (smearing scheme) given. Defaulting to Gaussian broadening, width =  0.1000E-01 eV.
  The width will be adjusted in iteration number     3 of each s.c.f. cycle (i.e., each geometry step).
  S.C.F. convergence parameters will be adjusted in iteration number     3 of the first full s.c.f. cycle only.
  No accuracy for occupation numbers given. Defaulting to  0.1000E-12.
  No threshold value for occupation numbers given. Defaulting to  0.0000E+00.
  No accuracy for fermi level given. Defaulting to  0.1000E-19.
  Maximum # of iterations to find E_F not set. Defaulting to  200.
  Preferred method for the eigenvalue solver ('KS_method') not specified in 'control.in'.
  Defaulting to serial version, LAPACK (via ELSI), since more k-points than CPUs available.
  Will not use alltoall communication since running on < 1024 CPUs.
  Threshold for basis singularities not set.
  Default threshold for basis singularities:  0.1000E-04
  partition_type (choice of integration weights) for integrals was not specified.
  | Using a version of the partition function of Stratmann and coworkers ('stratmann_sparse').
  | At each grid point, the set of atoms used to build the partition table is smoothly restricted to
  | only those atoms whose free-atom density would be non-zero at that grid point.
  Partitioning for Hartree potential was not defined. Using partition_type for integrals.
  | Adjusted default value of keyword multip_moments_threshold to:       0.10000000E-11
  | This value may affect high angular momentum components of the Hartree potential in periodic systems.
  Angular momentum expansion for Kerker preconditioner not set explicitly.
  | Using default value of   0
  No explicit requirement for turning off preconditioner.
  | By default, it will be turned off when the charge convergence reaches
  | sc_accuracy_rho  =   0.141421E-05
  No special mixing parameter while Kerker preconditioner is on.
  Using default: charge_mix_param =     0.0500.
  No q(lm)/r^(l+1) cutoff set for long-range Hartree potential.
  | Using default value of  0.100000E-09 .
  | Verify using the multipole_threshold keyword.
  Defaulting to new monopole extrapolation.
  Density update method: automatic selection selected.
  Using density matrix based charge density update.
  Using density matrix based charge density update.
  Using packed matrix style: index .
  Geometry relaxation: A file "geometry.in.next_step" is written out by default after each step.
  | This file contains the geometry of the current relaxation step as well as
  | the current Hessian matrix needed to restart the relaxation algorithm.
  | If you do not want part or all of this information, use the keywords
  | "write_restart_geometry" or "hessian_to_restart_geometry" to switch the output off.
  Defaulting to use time-reversal symmetry for k-point grid.
  Charge integration errors on the 3D integration grid will be compensated
  by explicit normalization and distribution of residual charges.
  Use the "compensate_multipole_errors" flag to change this behaviour.
------------------------------------------------------------


------------------------------------------------------------
          Reading geometry description geometry.in.
------------------------------------------------------------
  Input structure read successfully.
  The structure contains       12 atoms,  and a total of        456.000 electrons.

  Input geometry:
  | Unit cell:
  |        5.82214278        0.00000000        0.00000000
  |        0.00000000        5.94372874        0.00000000
  |        0.00000000        0.00000000        7.59427340
  | Atomic structure:
  |       Atom                x [A]            y [A]            z [A]
  |    1: Species Pd            2.92091326        0.00828057        0.00885675
  |    2: Species Pd            0.00793605        0.00805351        3.81215050
  |    3: Species Pd            0.00858300        2.98209061        0.00904106
  |    4: Species Pd            2.92150875        2.98187729        3.81196475
  |    5: Species Se            3.56993464        0.71191469        3.07499018
  |    6: Species Se            5.18559236        5.25282181        6.87300554
  |    7: Species Se            0.65692873        2.27905200        4.54753809
  |    8: Species Se            2.27242786        3.68581146        0.74597082
  |    9: Species Se            2.27263582        5.25293634        4.54752169
  |   10: Species Se            0.65712639        0.71181156        0.74613470
  |   11: Species Se            5.18541473        3.68571321        3.07500020
  |   12: Species Se            3.56972545        2.27875838        6.87312667

  Lattice parameters for 3D lattice (in Angstroms) :     5.822143    5.943729    7.594273
  Angle(s) between unit vectors (in degrees)       :    90.000000   90.000000   90.000000

  | The smallest distance between any two atoms is         2.40717452 AA.
  | The first atom of this pair is atom number                      6 .
  | The second atom of this pair is atom number                    10 .
  | Wigner-Seitz cell of the first atom image           0     0     0 .
  | (The Wigner-Seitz cell of the second atom is 0 0 0  by definition.)

  Symmetry information by spglib:
  | Precision set to  0.1E-04
  | Number of Operations  : 1
  | Space group           : 1
  | International         : P1
  | Schoenflies           : C1^1

  Quantities derived from the lattice vectors:
  | Reciprocal lattice vector 1:  1.079188  0.000000  0.000000
  | Reciprocal lattice vector 2:  0.000000  1.057112  0.000000
  | Reciprocal lattice vector 3:  0.000000  0.000000  0.827358
  | Unit cell volume                               :   0.262802E+03  A^3

  Range separation radius for Ewald summation (hartree_convergence_parameter):      4.01850607 bohr.

  Fractional coordinates:
                         L1                L2                L3
       atom_frac         0.50169042        0.00139316        0.00116624  Pd
       atom_frac         0.00136308        0.00135496        0.50197699  Pd
       atom_frac         0.00147420        0.50172051        0.00119051  Pd
       atom_frac         0.50179270        0.50168462        0.50195253  Pd
       atom_frac         0.61316508        0.11977577        0.40490907  Se
       atom_frac         0.89066733        0.88375867        0.90502477  Se
       atom_frac         0.11283281        0.38343809        0.59881148  Se
       atom_frac         0.39030782        0.62011771        0.09822807  Se
       atom_frac         0.39034354        0.88377794        0.59880932  Se
       atom_frac         0.11286676        0.11975842        0.09824965  Se
       atom_frac         0.89063682        0.62010118        0.40491039  Se
       atom_frac         0.61312915        0.38338869        0.90504072  Se

  Number of empty states per atom not set in control.in - providing a guess from actual geometry.
  | Total number of empty states used during s.c.f. cycle:       66
  If you use a very high smearing, use empty_states (per atom!) in control.in to increase this value.

  Structure-dependent array size parameters: 
  | Maximum number of distinct radial functions  :       27
  | Maximum number of basis functions            :      468
  | Number of Kohn-Sham states (occupied + empty):      294
------------------------------------------------------------

------------------------------------------------------------
          Preparing all fixed parts of the calculation.
------------------------------------------------------------
  Determining machine precision:
    2.225073858507201E-308
  Setting up grids for atomic and cluster calculations.

  Creating wave function, potential, and density for free atoms.

  Species: Pd

  List of occupied orbitals and eigenvalues:
    n    l              occ      energy [Ha]    energy [eV]
    1    0           2.0000      -913.269104    -24851.3168
    2    0           2.0000      -130.434372     -3549.2998
    3    0           2.0000       -23.521804      -640.0609
    4    0           2.0000        -3.256918       -88.6253
    5    0           1.0000        -0.157260        -4.2793
    2    1           6.0000      -116.910756     -3181.3035
    3    1           6.0000       -19.103344      -519.8284
    4    1           6.0000        -1.998052       -54.3697
    3    2          10.0000       -12.098182      -329.2083
    4    2           9.0000        -0.243389        -6.6230


  Species: Se

  List of occupied orbitals and eigenvalues:
    n    l              occ      energy [Ha]    energy [eV]
    1    0           2.0000      -466.337810    -12689.6975
    2    0           2.0000       -59.202598     -1610.9847
    3    0           2.0000        -7.847116      -213.5309
    4    0           2.0000        -0.634372       -17.2621
    2    1           6.0000       -52.061107     -1416.6548
    3    1           6.0000        -5.620941      -152.9536
    4    1           4.0000        -0.238469        -6.4891
    3    2          10.0000        -1.951949       -53.1152

  Creating fixed part of basis set: Ionic, confined, hydrogenic.
 
  Pd                   ion:

  List of free ionic orbitals and eigenvalues:
    n    l      energy [Ha]    energy [eV]
    1    0      -914.099884    -24873.9234
    2    0      -131.248265     -3571.4470
    3    0       -24.332473      -662.1203
    4    0        -4.059276      -110.4585
    2    1      -117.724296     -3203.4411
    3    1       -19.913908      -541.8850
    4    1        -2.795328       -76.0648
    3    2       -12.908733      -351.2645
    4    2        -1.004248       -27.3270


  List of ionic basis orbitals and eigenvalues:
    n    l      energy [Ha]    energy [eV]    outer radius [A]
    5    1        -0.516938       -14.0666       5.427025

 
  Pd                   hydrogenic:
 
  List of hydrogenic basis orbitals: 
    n    l      effective z      eigenvalue [eV]  inner max. [A]     outer max. [A]     outer radius [A]   
    4    3         8.000000       -54.4226           1.054686           1.054686           4.629581
    5    4        10.000000       -54.4226           1.330451           1.330451           5.043202
    3    0         2.600000        -9.8948           0.150992           2.606197           5.493778
    3    2         2.500000        -9.3396           1.873517           1.873517           5.493778
 
 
  Se                   ion:

  List of free ionic orbitals and eigenvalues:
    n    l      energy [Ha]    energy [eV]
    1    0      -467.261007    -12714.8189
    2    0       -60.104893     -1635.5374
    3    0        -8.743714      -237.9286
    4    0        -1.414053       -38.4783
    2    1       -52.964156     -1441.2280
    3    1        -6.516916      -177.3343
    4    1        -0.961869       -26.1738
    3    2        -2.844511       -77.4031


  List of ionic basis orbitals and eigenvalues:
    n    l      energy [Ha]    energy [eV]    outer radius [A]
    4    0        -1.414046       -38.4782       4.083166

 
  Se                   hydrogenic:
 
  List of hydrogenic basis orbitals: 
    n    l      effective z      eigenvalue [eV]  inner max. [A]     outer max. [A]     outer radius [A]   
    3    2         4.300000       -27.9518           1.103845           1.103845           5.278265
    2    1         1.600000        -8.6828           1.326010           1.326010           5.475439
    4    3         7.200000       -44.0822           1.173422           1.173422           4.965294
 

  Adding cutoff potential to free-atom effective potential.
  Creating atomic-like basis functions for current effective potential.

  Species Pd                  :

  List of atomic basis orbitals and eigenvalues:
    n    l      energy [Ha]    energy [eV]    outer radius [A]
    1    0      -913.269104    -24851.3168       0.223280
    2    0      -130.434372     -3549.2998       0.615909
    3    0       -23.521804      -640.0609       1.414312
    4    0        -3.256918       -88.6253       3.581357
    5    0        -0.157260        -4.2793       5.427025
    2    1      -116.910756     -3181.3035       0.631154
    3    1       -19.103344      -519.8284       1.540671
    4    1        -1.998052       -54.3697       4.408641
    3    2       -12.098182      -329.2083       1.806051
    4    2        -0.243389        -6.6230       5.361084


  Species Se                  :

  List of atomic basis orbitals and eigenvalues:
    n    l      energy [Ha]    energy [eV]    outer radius [A]
    1    0      -466.337810    -12689.6975       0.309561
    2    0       -59.202598     -1610.9847       0.885812
    3    0        -7.847116      -213.5309       2.355489
    4    0        -0.634372       -17.2621       5.214131
    2    1       -52.061107     -1416.6548       0.907737
    3    1        -5.620941      -152.9536       2.694529
    4    1        -0.238469        -6.4891       5.408909
    3    2        -1.951949       -53.1152       4.083166

  Assembling full basis from fixed parts.
  | Species Pd :   atomic orbital   1 s accepted.
  | Species Pd :   atomic orbital   2 s accepted.
  | Species Pd :   atomic orbital   3 s accepted.
  | Species Pd :   atomic orbital   4 s accepted.
  | Species Pd :   atomic orbital   5 s accepted.
  | Species Pd :    hydro orbital   3 s accepted.
  | Species Pd :   atomic orbital   2 p accepted.
  | Species Pd :   atomic orbital   3 p accepted.
  | Species Pd :   atomic orbital   4 p accepted.
  | Species Pd :    ionic orbital   5 p accepted.
  | Species Pd :   atomic orbital   3 d accepted.
  | Species Pd :   atomic orbital   4 d accepted.
  | Species Pd :    hydro orbital   3 d accepted.
  | Species Pd :    hydro orbital   4 f accepted.
  | Species Pd :    hydro orbital   5 g accepted.
  | Species Se :   atomic orbital   1 s accepted.
  | Species Se :   atomic orbital   2 s accepted.
  | Species Se :   atomic orbital   3 s accepted.
  | Species Se :    ionic orbital   4 s accepted.
  | Species Se :   atomic orbital   4 s accepted.
  | Species Se :   atomic orbital   2 p accepted.
  | Species Se :   atomic orbital   3 p accepted.
  | Species Se :   atomic orbital   4 p accepted.
  | Species Se :    hydro orbital   2 p accepted.
  | Species Se :   atomic orbital   3 d accepted.
  | Species Se :    hydro orbital   3 d accepted.
  | Species Se :    hydro orbital   4 f accepted.
 
  Basis size parameters after reduction:
  | Total number of radial functions:       27
  | Total number of basis functions :      468
 
  Per-task memory consumption for arrays in subroutine allocate_ext:
  |           9.993344MB.
  Testing on-site integration grid accuracy.
  |  Species  Function  <phi|h_atom|phi> (log., in eV)  <phi|h_atom|phi> (rad., in eV)
           1        1             -24851.3167505682             -24851.3148165635
           1        2              -3549.2998457785              -3549.2998098031
           1        3               -640.0608571327               -640.0608534886
           1        4                -88.6252603131                -88.6252593316
           1        5                 -4.2849374515                 -4.2849400622
           1        6                  4.9432123540                  4.9432188418
           1        7              -3181.3035399559              -3181.3035364574
           1        8               -519.8284281886               -519.8284264063
           1        9                -54.3697495804                -54.3697489261
           1       10                  0.8628369484                  0.8628370487
           1       11               -329.2082917394               -329.2082912864
           1       12                 -6.6230267036                 -6.6230265076
           1       13                  5.4924295291                  5.4924115607
           1       14                 25.0740861942                 25.0740861175
           1       15                 38.8271273823                 38.8271278029
           2       16             -12689.6974611609             -12689.6967666984
           2       17              -1610.9846578580              -1610.9846472470
           2       18               -213.5308789869               -213.5308777267
           2       19                -17.0464428502                -17.0464426496
           2       20                  6.7356859379                  6.7356842047
           2       21              -1416.6548010133              -1416.6548002108
           2       22               -152.9535734377               -152.9535727493
           2       23                 -6.4896265677                 -6.4896303794
           2       24                  5.2703037283                  5.2701679583
           2       25                -53.1152220964                -53.1152219035
           2       26                  7.6186674138                  7.6186665630
           2       27                 23.1072799052                 23.1072803137

  Preparing densities etc. for the partition functions (integrals / Hartree potential).

  Preparations completed.
  max(cpu_time)          :      0.551 s.
  Wall clock time (cpu1) :      0.582 s.
------------------------------------------------------------

------------------------------------------------------------
          Begin self-consistency loop: Initialization.

          Date     :  20200420, Time     :  113503.750
------------------------------------------------------------

  Initializing index lists of integration centers etc. from given atomic structure:
  Mapping all atomic coordinates to central unit cell.

  Initializing the k-points
  Using symmetry for reducing the k-points
  | k-points reduced from:       64 to       36
  | Number of k-points                             :        36
  The eigenvectors in the calculations are COMPLEX.
  | K-points in task   0:         1
  | K-points in task   1:         2
  | K-points in task   2:         2
  | K-points in task   3:         2
  | K-points in task   4:         2
  | K-points in task   5:         2
  | K-points in task   6:         2
  | K-points in task   7:         2
  | K-points in task   8:         2
  | K-points in task   9:         2
  | K-points in task  10:         2
  | K-points in task  11:         2
  | K-points in task  12:         2
  | K-points in task  13:         1
  | K-points in task  14:         1
  | K-points in task  15:         1
  | K-points in task  16:         1
  | K-points in task  17:         1
  | K-points in task  18:         1
  | K-points in task  19:         1
  | K-points in task  20:         1
  | K-points in task  21:         1
  | K-points in task  22:         1
  | K-points in task  23:         1
  | Number of basis functions in the Hamiltonian integrals :      5550
  | Number of basis functions in a single unit cell        :       468
  | Number of centers in hartree potential         :      1308
  | Number of centers in hartree multipole         :       757
  | Number of centers in electron density summation:       590
  | Number of centers in basis integrals           :       630
  | Number of centers in integrals                 :       234
  | Number of centers in hamiltonian               :       590
  | Consuming         48 KiB for k_phase.
  | Number of super-cells (origin) [n_cells]                     :         567
  | Number of super-cells (after PM_index) [n_cells]             :          86
  | Number of super-cells in hamiltonian [n_cells_in_hamiltonian]:          86
  | Size of matrix packed + index [n_hamiltonian_matrix_size] :     1275680

  Initializing relaxation algorithms.
  | Estimated reciprocal-space cutoff momentum G_max:         2.41594968 bohr^-1 .
  | Reciprocal lattice points for long-range Hartree potential:     410
  Partitioning the integration grid into batches with parallel hashing+maxmin method.
  | Number of batches:     4174
  | Maximal batch size:     110
  | Minimal batch size:      49
  | Average batch size:      92.031
  | Standard deviation of batch sizes:      11.388

  Integration load balanced across    24 MPI tasks.
  Work distribution over tasks is as follows:
  Task     0 has      15986 integration points.
  Task     1 has      16007 integration points.
  Task     2 has      16011 integration points.
  Task     3 has      15998 integration points.
  Task     4 has      16009 integration points.
  Task     5 has      16019 integration points.
  Task     6 has      16004 integration points.
  Task     7 has      16007 integration points.
  Task     8 has      15997 integration points.
  Task     9 has      16011 integration points.
  Task    10 has      16051 integration points.
  Task    11 has      15993 integration points.
  Task    12 has      15993 integration points.
  Task    13 has      16005 integration points.
  Task    14 has      16054 integration points.
  Task    15 has      15981 integration points.
  Task    16 has      15992 integration points.
  Task    17 has      16051 integration points.
  Task    18 has      15979 integration points.
  Task    19 has      15986 integration points.
  Task    20 has      15979 integration points.
  Task    21 has      15997 integration points.
  Task    22 has      16019 integration points.
  Task    23 has      16007 integration points.
  Initializing partition tables, free-atom densities, potentials, etc. across the integration grid (initialize_grid_storage).
  | initialize_grid_storage: Actual outermost partition radius vs. multipole_radius_free
  | (-- VB: in principle, multipole_radius_free should be larger, hence this output)
  | Species        1: Confinement radius =              6.000000000000000 AA, multipole_radius_free =              6.058219618167466 AA.
  | Species        1: outer_partition_radius set to              6.058219618167466 AA .
  | Species        2: Confinement radius =              6.000000000000000 AA, multipole_radius_free =              6.037996416842453 AA.
  | Species        2: outer_partition_radius set to              6.037996416842453 AA .
  | The sparse table of interatomic distances needs       2824.92 kbyte instead of      3175.20 kbyte of memory.
  | Net number of integration points:   384136
  | of which are non-zero points    :   322502
  | Numerical average free-atom electrostatic potential    :    -16.85087280 eV
  Renormalizing the initial density to the exact electron count on the 3D integration grid.
  | Initial density: Formal number of electrons (from input files) :     456.0000000000
  | Integrated number of electrons on 3D grid     :     456.0000077880
  | Charge integration error                      :       0.0000077880
  | Normalization factor for density and gradient :       0.9999999829
  Renormalizing the free-atom superposition density to the exact electron count on the 3D integration grid.
  | Formal number of electrons (from input files) :     456.0000000000
  | Integrated number of electrons on 3D grid     :     456.0000077880
  | Charge integration error                      :       0.0000077880
  | Normalization factor for density and gradient :       0.9999999829
  Obtaining max. number of non-zero basis functions in each batch (get_n_compute_maxes).
  | Maximal number of non-zero basis functions:     1010 in task     0
  | Maximal number of non-zero basis functions:     1000 in task     1
  | Maximal number of non-zero basis functions:     1030 in task     2
  | Maximal number of non-zero basis functions:     1015 in task     3
  | Maximal number of non-zero basis functions:     1018 in task     4
  | Maximal number of non-zero basis functions:     1004 in task     5
  | Maximal number of non-zero basis functions:     1020 in task     6
  | Maximal number of non-zero basis functions:     1018 in task     7
  | Maximal number of non-zero basis functions:     1013 in task     8
  | Maximal number of non-zero basis functions:     1022 in task     9
  | Maximal number of non-zero basis functions:     1020 in task    10
  | Maximal number of non-zero basis functions:     1008 in task    11
  | Maximal number of non-zero basis functions:     1017 in task    12
  | Maximal number of non-zero basis functions:      999 in task    13
  | Maximal number of non-zero basis functions:     1044 in task    14
  | Maximal number of non-zero basis functions:     1012 in task    15
  | Maximal number of non-zero basis functions:      998 in task    16
  | Maximal number of non-zero basis functions:     1005 in task    17
  | Maximal number of non-zero basis functions:     1016 in task    18
  | Maximal number of non-zero basis functions:     1005 in task    19
  | Maximal number of non-zero basis functions:     1012 in task    20
  | Maximal number of non-zero basis functions:     1003 in task    21
  | Maximal number of non-zero basis functions:     1010 in task    22
  | Maximal number of non-zero basis functions:     1011 in task    23
  Allocating        2.099 MB for KS_eigenvector_complex
  Integrating Hamiltonian matrix: batch-based integration.
  Time summed over all CPUs for integration: real work       62.672 s, elapsed       63.729 s
  Integrating overlap matrix.
  Time summed over all CPUs for integration: real work       45.251 s, elapsed       46.067 s
  Decreasing sparse matrix size:
  | Tolerance:  0.1000E-12
  Hamiltonian matrix
  | Array has  1105880 nonzero elements out of  1275680 elements
  | Sparsity factor is 0.133
  Overlap matrix
  | Array has  1022414 nonzero elements out of  1275680 elements
  | Sparsity factor is 0.199
  New size of hamiltonian matrix:     1105960

  Updating Kohn-Sham eigenvalues and eigenvectors using ELSI and the (modified) LAPACK eigensolver.
  Singularity check in k-point 24, task 0 (analysis for other k-points/tasks may follow below):
  Overlap matrix is not singular
  | Lowest and highest eigenvalues :  0.8996E-03,  0.6957E+01
  Finished singularity check of overlap matrix
  | Time :     0.075 s
  Starting LAPACK eigensolver
  Finished Cholesky decomposition
  | Time :     0.018 s
  Finished transformation to standard eigenproblem
  | Time :     0.021 s
  Finished solving standard eigenproblem
  | Time :     0.071 s
  Finished back-transformation of eigenvectors
  | Time :     0.009 s

  Obtaining occupation numbers and chemical potential using ELSI.
  | Chemical potential (Fermi level):    -4.60313200 eV
  Writing Kohn-Sham eigenvalues.
  K-point:       1 at    0.000000    0.000000    0.000000 (in units of recip. lattice)

  State    Occupation    Eigenvalue [Ha]    Eigenvalue [eV]
      1       2.00000        -913.279645       -24851.60356
      2       2.00000        -913.279642       -24851.60348
      3       2.00000        -913.279632       -24851.60323
      4       2.00000        -913.279564       -24851.60138
      5       2.00000        -466.350377       -12690.03943
      6       2.00000        -466.350345       -12690.03856
      7       2.00000        -466.350304       -12690.03743
      8       2.00000        -466.350302       -12690.03738
      9       2.00000        -466.350301       -12690.03734
     10       2.00000        -466.350289       -12690.03704
     11       2.00000        -466.350271       -12690.03653
     12       2.00000        -466.350253       -12690.03603
     13       2.00000        -130.445230        -3549.59530
     14       2.00000        -130.445227        -3549.59522
     15       2.00000        -130.445217        -3549.59497
     16       2.00000        -130.445149        -3549.59310
     17       2.00000        -116.921639        -3181.59967
     18       2.00000        -116.921636        -3181.59958
     19       2.00000        -116.921630        -3181.59942
     20       2.00000        -116.921627        -3181.59934
     21       2.00000        -116.921626        -3181.59933
     22       2.00000        -116.921617        -3181.59909
     23       2.00000        -116.921573        -3181.59787
     24       2.00000        -116.921570        -3181.59779
     25       2.00000        -116.921561        -3181.59754
     26       2.00000        -116.921558        -3181.59746
     27       2.00000        -116.921549        -3181.59722
     28       2.00000        -116.921492        -3181.59569
     29       2.00000         -59.215592        -1611.33823
     30       2.00000         -59.215559        -1611.33733
     31       2.00000         -59.215516        -1611.33618
     32       2.00000         -59.215515        -1611.33613
     33       2.00000         -59.215514        -1611.33611
     34       2.00000         -59.215502        -1611.33579
     35       2.00000         -59.215483        -1611.33528
     36       2.00000         -59.215464        -1611.33477
     37       2.00000         -52.074109        -1417.00862
     38       2.00000         -52.074082        -1417.00788
     39       2.00000         -52.074077        -1417.00774
     40       2.00000         -52.074049        -1417.00697
     41       2.00000         -52.074035        -1417.00659
     42       2.00000         -52.074033        -1417.00654
     43       2.00000         -52.074033        -1417.00653
     44       2.00000         -52.074031        -1417.00649
     45       2.00000         -52.074020        -1417.00619
     46       2.00000         -52.074006        -1417.00581
     47       2.00000         -52.074005        -1417.00577
     48       2.00000         -52.074005        -1417.00576
     49       2.00000         -52.074001        -1417.00567
     50       2.00000         -52.074000        -1417.00564
     51       2.00000         -52.073992        -1417.00542
     52       2.00000         -52.073983        -1417.00517
     53       2.00000         -52.073974        -1417.00492
     54       2.00000         -52.073959        -1417.00451
     55       2.00000         -52.073957        -1417.00446
     56       2.00000         -52.073956        -1417.00443
     57       2.00000         -52.073955        -1417.00441
     58       2.00000         -52.073944        -1417.00412
     59       2.00000         -52.073926        -1417.00361
     60       2.00000         -52.073907        -1417.00311
     61       2.00000         -23.533432         -640.37728
     62       2.00000         -23.533429         -640.37719
     63       2.00000         -23.533419         -640.37692
     64       2.00000         -23.533346         -640.37494
     65       2.00000         -19.115238         -520.15209
     66       2.00000         -19.115235         -520.15201
     67       2.00000         -19.115223         -520.15168
     68       2.00000         -19.115150         -520.14969
     69       2.00000         -19.115149         -520.14966
     70       2.00000         -19.115145         -520.14955
     71       2.00000         -19.115137         -520.14933
     72       2.00000         -19.115061         -520.14729
     73       2.00000         -19.114586         -520.13434
     74       2.00000         -19.114583         -520.13427
     75       2.00000         -19.114574         -520.13401
     76       2.00000         -19.114503         -520.13209
     77       2.00000         -12.110047         -329.53114
     78       2.00000         -12.110043         -329.53105
     79       2.00000         -12.110033         -329.53077
     80       2.00000         -12.110010         -329.53015
     81       2.00000         -12.110007         -329.53005
     82       2.00000         -12.109997         -329.52977
     83       2.00000         -12.109959         -329.52875
     84       2.00000         -12.109923         -329.52776
     85       2.00000         -12.109648         -329.52028
     86       2.00000         -12.109645         -329.52021
     87       2.00000         -12.109634         -329.51991
     88       2.00000         -12.109590         -329.51872
     89       2.00000         -12.109587         -329.51863
     90       2.00000         -12.109579         -329.51840
     91       2.00000         -12.109563         -329.51797
     92       2.00000         -12.109506         -329.51643
     93       2.00000         -12.109502         -329.51631
     94       2.00000         -12.109499         -329.51623
     95       2.00000         -12.109489         -329.51597
     96       2.00000         -12.109418         -329.51403
     97       2.00000          -7.861904         -213.93330
     98       2.00000          -7.861865         -213.93223
     99       2.00000          -7.861817         -213.93093
    100       2.00000          -7.861817         -213.93093
    101       2.00000          -7.861816         -213.93088
    102       2.00000          -7.861802         -213.93050
    103       2.00000          -7.861780         -213.92993
    104       2.00000          -7.861760         -213.92937
    105       2.00000          -5.636338         -153.37256
    106       2.00000          -5.636306         -153.37170
    107       2.00000          -5.636257         -153.37036
    108       2.00000          -5.636254         -153.37026
    109       2.00000          -5.636246         -153.37005
    110       2.00000          -5.636237         -153.36983
    111       2.00000          -5.636211         -153.36910
    112       2.00000          -5.636192         -153.36859
    113       2.00000          -5.636049         -153.36471
    114       2.00000          -5.636005         -153.36349
    115       2.00000          -5.635949         -153.36199
    116       2.00000          -5.635947         -153.36193
    117       2.00000          -5.635938         -153.36167
    118       2.00000          -5.635920         -153.36118
    119       2.00000          -5.635877         -153.36001
    120       2.00000          -5.635864         -153.35965
    121       2.00000          -5.635378         -153.34645
    122       2.00000          -5.635340         -153.34540
    123       2.00000          -5.635299         -153.34428
    124       2.00000          -5.635295         -153.34418
    125       2.00000          -5.635294         -153.34416
    126       2.00000          -5.635282         -153.34384
    127       2.00000          -5.635265         -153.34336
    128       2.00000          -5.635244         -153.34279
    129       2.00000          -3.274155          -89.09429
    130       2.00000          -3.274151          -89.09417
    131       2.00000          -3.274136          -89.09377
    132       2.00000          -3.274029          -89.09088
    133       2.00000          -2.020612          -54.98364
    134       2.00000          -2.020610          -54.98358
    135       2.00000          -2.020559          -54.98222
    136       2.00000          -2.020437          -54.97889
    137       2.00000          -2.019587          -54.95577
    138       2.00000          -2.019580          -54.95557
    139       2.00000          -2.019544          -54.95458
    140       2.00000          -2.019417          -54.95113
    141       2.00000          -2.013053          -54.77796
    142       2.00000          -2.013052          -54.77792
    143       2.00000          -2.013040          -54.77760
    144       2.00000          -2.012947          -54.77506
    145       2.00000          -1.969304          -53.58749
    146       2.00000          -1.969242          -53.58580
    147       2.00000          -1.969197          -53.58458
    148       2.00000          -1.969169          -53.58380
    149       2.00000          -1.968264          -53.55919
    150       2.00000          -1.968225          -53.55813
    151       2.00000          -1.968177          -53.55682
    152       2.00000          -1.968159          -53.55633
    153       2.00000          -1.967847          -53.54783
    154       2.00000          -1.967827          -53.54730
    155       2.00000          -1.967782          -53.54607
    156       2.00000          -1.967766          -53.54564
    157       2.00000          -1.967695          -53.54370
    158       2.00000          -1.967672          -53.54307
    159       2.00000          -1.967620          -53.54167
    160       2.00000          -1.967612          -53.54144
    161       2.00000          -1.967407          -53.53586
    162       2.00000          -1.967376          -53.53503
    163       2.00000          -1.967349          -53.53430
    164       2.00000          -1.967344          -53.53415
    165       2.00000          -1.967319          -53.53347
    166       2.00000          -1.967317          -53.53341
    167       2.00000          -1.967279          -53.53238
    168       2.00000          -1.967278          -53.53235
    169       2.00000          -1.967259          -53.53183
    170       2.00000          -1.967255          -53.53172
    171       2.00000          -1.967245          -53.53145
    172       2.00000          -1.967236          -53.53120
    173       2.00000          -1.967211          -53.53054
    174       2.00000          -1.967198          -53.53017
    175       2.00000          -1.967194          -53.53007
    176       2.00000          -1.967181          -53.52972
    177       2.00000          -1.966708          -53.51686
    178       2.00000          -1.966684          -53.51620
    179       2.00000          -1.966645          -53.51512
    180       2.00000          -1.966633          -53.51480
    181       2.00000          -1.966360          -53.50739
    182       2.00000          -1.966342          -53.50690
    183       2.00000          -1.966298          -53.50570
    184       2.00000          -1.966293          -53.50555
    185       2.00000          -0.758868          -20.64986
    186       2.00000          -0.741879          -20.18756
    187       2.00000          -0.720043          -19.59335
    188       2.00000          -0.718353          -19.54737
    189       2.00000          -0.652747          -17.76215
    190       2.00000          -0.640655          -17.43310
    191       2.00000          -0.638828          -17.38339
    192       2.00000          -0.628095          -17.09133
    193       2.00000          -0.418918          -11.39935
    194       2.00000          -0.410995          -11.18374
    195       2.00000          -0.387965          -10.55706
    196       2.00000          -0.377002          -10.25875
    197       2.00000          -0.370010          -10.06848
    198       2.00000          -0.368031          -10.01465
    199       2.00000          -0.367873          -10.01034
    200       2.00000          -0.366682           -9.97792
    201       2.00000          -0.366040           -9.96045
    202       2.00000          -0.364240           -9.91149
    203       2.00000          -0.360087           -9.79848
    204       2.00000          -0.351898           -9.57562
    205       2.00000          -0.340084           -9.25416
    206       2.00000          -0.329793           -8.97411
    207       2.00000          -0.321960           -8.76098
    208       2.00000          -0.315375           -8.58178
    209       2.00000          -0.313699           -8.53620
    210       2.00000          -0.306849           -8.34979
    211       2.00000          -0.288627           -7.85395
    212       2.00000          -0.286153           -7.78662
    213       2.00000          -0.285085           -7.75757
    214       2.00000          -0.280457           -7.63162
    215       2.00000          -0.278790           -7.58627
    216       2.00000          -0.277231           -7.54384
    217       2.00000          -0.276636           -7.52766
    218       2.00000          -0.275700           -7.50218
    219       2.00000          -0.273605           -7.44517
    220       2.00000          -0.270617           -7.36385
    221       2.00000          -0.264491           -7.19717
    222       2.00000          -0.262085           -7.13170
    223       2.00000          -0.262011           -7.12968
    224       2.00000          -0.256327           -6.97502
    225       2.00000          -0.226073           -6.15177
    226       2.00000          -0.216885           -5.90173
    227       2.00000          -0.214369           -5.83328
    228       2.00000          -0.170389           -4.63653
    229       0.00000          -0.151148           -4.11295
    230       0.00000          -0.135988           -3.70041
    231       0.00000          -0.131049           -3.56604
    232       0.00000          -0.130428           -3.54912
    233       0.00000          -0.127006           -3.45601
    234       0.00000          -0.117142           -3.18760
    235       0.00000          -0.114447           -3.11427
    236       0.00000          -0.081638           -2.22150
    237       0.00000          -0.038178           -1.03886
    238       0.00000          -0.032844           -0.89373
    239       0.00000          -0.008662           -0.23570
    240       0.00000           0.014891            0.40522
    241       0.00000           0.022398            0.60949
    242       0.00000           0.022842            0.62155
    243       0.00000           0.052723            1.43466
    244       0.00000           0.088758            2.41522
    245       0.00000           0.106668            2.90258
    246       0.00000           0.110504            3.00696
    247       0.00000           0.120224            3.27146
    248       0.00000           0.120376            3.27559
    249       0.00000           0.127398            3.46668
    250       0.00000           0.127692            3.47467
    251       0.00000           0.133577            3.63482
    252       0.00000           0.149865            4.07804
    253       0.00000           0.164439            4.47462
    254       0.00000           0.175946            4.78774
    255       0.00000           0.177211            4.82215
    256       0.00000           0.189647            5.16056
    257       0.00000           0.190018            5.17064
    258       0.00000           0.193963            5.27800
    259       0.00000           0.217835            5.92760
    260       0.00000           0.233282            6.34792
    261       0.00000           0.248554            6.76349
    262       0.00000           0.256502            6.97977
    263       0.00000           0.265826            7.23348
    264       0.00000           0.280597            7.63543
    265       0.00000           0.282304            7.68188
[...]
  Pulay mixing of updated and previous charge densities.
  Renormalizing the density to the exact electron count on the 3D integration grid.
  | Formal number of electrons (from input files) :     456.0000000000
  | Integrated number of electrons on 3D grid     :     455.9999947862
  | Charge integration error                      :      -0.0000052138
  | Normalization factor for density and gradient :       1.0000000114

  Evaluating partitioned Hartree potential by multipole expansion.
  | Original multipole sum: apparent total charge =   0.859101E-12
  | Sum of charges compensated after spline to logarithmic grids =   0.102068E-06
  | Analytical far-field extrapolation by fixed multipoles:
  | Hartree multipole sum: apparent total charge =   0.859267E-12
  Summing up the Hartree potential.
  Time summed over all CPUs for potential: real work       39.795 s, elapsed       40.408 s
  | RMS charge density error from multipole expansion :   0.763208E-02
  | Average real-space part of the electrostatic potential :     -0.00763004 eV

  Integrating Hamiltonian matrix: batch-based integration.
  Time summed over all CPUs for integration: real work       61.753 s, elapsed       62.715 s

  Updating Kohn-Sham eigenvalues and eigenvectors using ELSI and the (modified) LAPACK eigensolver.
  Starting LAPACK eigensolver
  Finished Cholesky decomposition
  | Time :     0.011 s
  Finished transformation to standard eigenproblem
  | Time :     0.020 s
  Finished solving standard eigenproblem
  | Time :     0.070 s
  Finished back-transformation of eigenvectors
  | Time :     0.008 s

  Obtaining occupation numbers and chemical potential using ELSI.
  | Chemical potential (Fermi level):    -4.77271568 eV
  What follows are estimated values for band gap, HOMO, LUMO, etc.
  | They are estimated on a discrete k-point grid and not necessarily exact.
  | For converged numbers, create a DOS and/or band structure plot on a denser k-grid.

  Highest occupied state (VBM) at     -4.78924972 eV (relative to internal zero)
  | Occupation number:      1.35996758
  | K-point:      11 at    0.250000    0.000000    0.000000 (in units of recip. lattice)

  Lowest unoccupied state (CBM) at    -4.75868961 eV (relative to internal zero)
  | Occupation number:      0.69157603
  | K-point:      17 at    0.250000    0.500000    0.000000 (in units of recip. lattice)

  ESTIMATED overall HOMO-LUMO gap:      0.03056012 eV between HOMO at k-point 11 and LUMO at k-point 17
  | This appears to be an indirect band gap.
  | Smallest direct gap :      0.44999105 eV for k_point 11 at    0.250000    0.500000    0.000000 (in units of recip. lattice)
  However, this system has fractional occupation numbers. Since we use a finite k-point grid,
  this material is metallic within the approximate finite broadening function (occupation_type)
  applied to determine the occupation numbers.

  Total energy components:
  | Sum of eigenvalues            :      -23864.34400053 Ha     -649381.84043858 eV
  | XC energy correction          :       -1284.32344178 Ha      -34948.21899659 eV
  | XC potential correction       :        1672.89613644 Ha       45521.81999735 eV
  | Free-atom electrostatic energy:      -16511.27287659 Ha     -449294.59482918 eV
  | Hartree energy correction     :           7.13874725 Ha         194.25519636 eV
  | vdW energy correction         :           0.00000000 Ha           0.00000000 eV
  | Entropy correction            :          -0.00006281 Ha          -0.00170926 eV
  | ---------------------------
  | Total energy                  :      -39979.90543519 Ha    -1087908.57907064 eV
  | Total energy, T -> 0          :      -39979.90549801 Ha    -1087908.58077991 eV  <-- do not rely on this value for anything but (periodic) metals
  | Electronic free energy        :      -39979.90556082 Ha    -1087908.58248917 eV

  Derived energy quantities:
  | Kinetic energy                :       41145.63830164 Ha     1119629.78432397 eV
  | Electrostatic energy          :      -79841.22029506 Ha    -2172590.14439802 eV
  | Energy correction for multipole
  | error in Hartree potential    :          -0.00580006 Ha          -0.15782764 eV
  | Sum of eigenvalues per atom                           :      -54115.15336988 eV
  | Total energy (T->0) per atom                          :      -90659.04839833 eV  <-- do not rely on this value for anything but (periodic) metals
  | Electronic free energy per atom                       :      -90659.04854076 eV

  Self-consistency convergence accuracy:
  | Change of charge density      :  0.2016E-03
  | Change of sum of eigenvalues  : -0.7599E-01 eV
  | Change of total energy        :  0.1498E-05 eV

  End self-consistency iteration #    15       :  max(cpu_time)    wall_clock(cpu1)
  | Time for this iteration                    :       10.538 s          10.539 s
  | Charge density update                      :        5.049 s           5.049 s
  | Density mixing & preconditioning           :        0.843 s           0.843 s
  | Hartree multipole update                   :        0.004 s           0.005 s
  | Hartree multipole summation                :        1.703 s           1.703 s
  | Integration                                :        2.640 s           2.640 s
  | Solution of K.-S. eqns.                    :        0.297 s           0.297 s
  | Total energy evaluation                    :        0.000 s           0.001 s

  Partial memory accounting:
  | Current value for overall tracked memory usage:
  |   Minimum:       23.280 MB (on task  0)
  |   Maximum:       25.380 MB (on task  1)
  |   Average:       24.330 MB
  | Peak value for overall tracked memory usage:
  |   Minimum:       36.659 MB (on task 16 after allocating eval_tmp)
  |   Maximum:       39.327 MB (on task  2 after allocating wave)
  |   Average:       37.969 MB
  | Largest tracked array allocation so far:
  |   Minimum:        9.733 MB (overlap_matrix on task  0)
  |   Maximum:        9.733 MB (overlap_matrix on task  0)
  |   Average:        9.733 MB
  Note:  These values currently only include a subset of arrays which are explicitly tracked.
  The "true" memory usage will be greater.
------------------------------------------------------------

------------------------------------------------------------
          Begin self-consistency iteration #   16

  Date     :  20200420, Time     :  113748.607
------------------------------------------------------------
  Evaluating new KS density using the density matrix
  Evaluating density matrix
  Time summed over all CPUs for getting density from density matrix: real work      118.292 s, elapsed      119.812 s
  Integration grid: deviation in total charge (<rho> - N_e) =   2.273737E-13
  Pulay mixing of updated and previous charge densities.
  Renormalizing the density to the exact electron count on the 3D integration grid.
  | Formal number of electrons (from input files) :     456.0000000000
  | Integrated number of electrons on 3D grid     :     455.9999997478
  | Charge integration error                      :      -0.0000002522
  | Normalization factor for density and gradient :       1.0000000006

  Evaluating partitioned Hartree potential by multipole expansion.
  | Original multipole sum: apparent total charge =   0.124064E-11
  | Sum of charges compensated after spline to logarithmic grids =   0.102064E-06
  | Analytical far-field extrapolation by fixed multipoles:
  | Hartree multipole sum: apparent total charge =   0.124099E-11
  Summing up the Hartree potential.
  Time summed over all CPUs for potential: real work       39.797 s, elapsed       40.406 s
  | RMS charge density error from multipole expansion :   0.763225E-02
  | Average real-space part of the electrostatic potential :     -0.00762853 eV

  Integrating Hamiltonian matrix: batch-based integration.
  Time summed over all CPUs for integration: real work       61.740 s, elapsed       62.765 s

  Updating Kohn-Sham eigenvalues and eigenvectors using ELSI and the (modified) LAPACK eigensolver.
  Starting LAPACK eigensolver
  Finished Cholesky decomposition
  | Time :     0.011 s
  Finished transformation to standard eigenproblem
  | Time :     0.020 s
  Finished solving standard eigenproblem
  | Time :     0.070 s
  Finished back-transformation of eigenvectors
  | Time :     0.008 s

  Obtaining occupation numbers and chemical potential using ELSI.
  | Chemical potential (Fermi level):    -4.77270956 eV
  What follows are estimated values for band gap, HOMO, LUMO, etc.
  | They are estimated on a discrete k-point grid and not necessarily exact.
  | For converged numbers, create a DOS and/or band structure plot on a denser k-grid.

  Highest occupied state (VBM) at     -4.78924600 eV (relative to internal zero)
  | Occupation number:      1.36001593
  | K-point:      11 at    0.250000    0.000000    0.000000 (in units of recip. lattice)

  Lowest unoccupied state (CBM) at    -4.75867655 eV (relative to internal zero)
  | Occupation number:      0.69143120
  | K-point:      17 at    0.250000    0.500000    0.000000 (in units of recip. lattice)

  ESTIMATED overall HOMO-LUMO gap:      0.03056945 eV between HOMO at k-point 11 and LUMO at k-point 17
  | This appears to be an indirect band gap.
  | Smallest direct gap :      0.44999277 eV for k_point 11 at    0.250000    0.500000    0.000000 (in units of recip. lattice)
  However, this system has fractional occupation numbers. Since we use a finite k-point grid,
  this material is metallic within the approximate finite broadening function (occupation_type)
  applied to determine the occupation numbers.

  Total energy components:
  | Sum of eigenvalues            :      -23864.34392879 Ha     -649381.83848643 eV
  | XC energy correction          :       -1284.32344392 Ha      -34948.21905494 eV
  | XC potential correction       :        1672.89613862 Ha       45521.82005643 eV
  | Free-atom electrostatic energy:      -16511.27287659 Ha     -449294.59482918 eV
  | Hartree energy correction     :           7.13867548 Ha         194.25324341 eV
  | vdW energy correction         :           0.00000000 Ha           0.00000000 eV
  | Entropy correction            :          -0.00006281 Ha          -0.00170921 eV
  | ---------------------------
  | Total energy                  :      -39979.90543519 Ha    -1087908.57907071 eV
  | Total energy, T -> 0          :      -39979.90549801 Ha    -1087908.58077992 eV  <-- do not rely on this value for anything but (periodic) metals
  | Electronic free energy        :      -39979.90556082 Ha    -1087908.58248912 eV

  Derived energy quantities:
  | Kinetic energy                :       41145.63832153 Ha     1119629.78486507 eV
  | Electrostatic energy          :      -79841.22031280 Ha    -2172590.14488083 eV
  | Energy correction for multipole
  | error in Hartree potential    :          -0.00580012 Ha          -0.15782937 eV
  | Sum of eigenvalues per atom                           :      -54115.15320720 eV
  | Total energy (T->0) per atom                          :      -90659.04839833 eV  <-- do not rely on this value for anything but (periodic) metals
  | Electronic free energy per atom                       :      -90659.04854076 eV

  Self-consistency convergence accuracy:
  | Change of charge density      :  0.7039E-04
  | Change of sum of eigenvalues  :  0.1952E-02 eV
  | Change of total energy        : -0.6375E-07 eV

  End self-consistency iteration #    16       :  max(cpu_time)    wall_clock(cpu1)
  | Time for this iteration                    :       10.551 s          10.552 s
  | Charge density update                      :        5.060 s           5.061 s
  | Density mixing & preconditioning           :        0.844 s           0.844 s
  | Hartree multipole update                   :        0.004 s           0.004 s
  | Hartree multipole summation                :        1.703 s           1.703 s
  | Integration                                :        2.642 s           2.642 s
  | Solution of K.-S. eqns.                    :        0.297 s           0.297 s
  | Total energy evaluation                    :        0.000 s           0.001 s

  Partial memory accounting:
  | Current value for overall tracked memory usage:
  |   Minimum:       23.280 MB (on task  0)
  |   Maximum:       25.380 MB (on task  1)
  |   Average:       24.330 MB
  | Peak value for overall tracked memory usage:
  |   Minimum:       36.659 MB (on task 16 after allocating eval_tmp)
  |   Maximum:       39.327 MB (on task  2 after allocating wave)
  |   Average:       37.969 MB
  | Largest tracked array allocation so far:
  |   Minimum:        9.733 MB (overlap_matrix on task  0)
  |   Maximum:        9.733 MB (overlap_matrix on task  0)
  |   Average:        9.733 MB
  Note:  These values currently only include a subset of arrays which are explicitly tracked.
  The "true" memory usage will be greater.
------------------------------------------------------------

------------------------------------------------------------
          Begin self-consistency iteration #   17

  Date     :  20200420, Time     :  113759.160
------------------------------------------------------------
  Evaluating new KS density using the density matrix
  Evaluating density matrix
  Time summed over all CPUs for getting density from density matrix: real work      118.293 s, elapsed      119.981 s
  Integration grid: deviation in total charge (<rho> - N_e) =  -5.684342E-14
  Pulay mixing of updated and previous charge densities.
  Renormalizing the density to the exact electron count on the 3D integration grid.
  | Formal number of electrons (from input files) :     456.0000000000
  | Integrated number of electrons on 3D grid     :     455.9999975218
  | Charge integration error                      :      -0.0000024782
  | Normalization factor for density and gradient :       1.0000000054

  Evaluating partitioned Hartree potential by multipole expansion.
  | Original multipole sum: apparent total charge =   0.219332E-12
  | Sum of charges compensated after spline to logarithmic grids =   0.102103E-06
  | Analytical far-field extrapolation by fixed multipoles:
  | Hartree multipole sum: apparent total charge =   0.219556E-12
  Summing up the Hartree potential.
  Time summed over all CPUs for potential: real work       39.798 s, elapsed       40.410 s
  | RMS charge density error from multipole expansion :   0.763332E-02
  | Average real-space part of the electrostatic potential :     -0.00761877 eV

  Integrating Hamiltonian matrix: batch-based integration.
  Time summed over all CPUs for integration: real work       61.719 s, elapsed       62.733 s

  Updating Kohn-Sham eigenvalues and eigenvectors using ELSI and the (modified) LAPACK eigensolver.
  Starting LAPACK eigensolver
  Finished Cholesky decomposition
  | Time :     0.011 s
  Finished transformation to standard eigenproblem
  | Time :     0.020 s
  Finished solving standard eigenproblem
  | Time :     0.070 s
  Finished back-transformation of eigenvectors
  | Time :     0.008 s

  Obtaining occupation numbers and chemical potential using ELSI.
  | Chemical potential (Fermi level):    -4.77266617 eV
  What follows are estimated values for band gap, HOMO, LUMO, etc.
  | They are estimated on a discrete k-point grid and not necessarily exact.
  | For converged numbers, create a DOS and/or band structure plot on a denser k-grid.

  Highest occupied state (VBM) at     -4.78922468 eV (relative to internal zero)
  | Occupation number:      1.36046238
  | K-point:      11 at    0.250000    0.000000    0.000000 (in units of recip. lattice)

  Lowest unoccupied state (CBM) at    -4.75858806 eV (relative to internal zero)
  | Occupation number:      0.69049100
  | K-point:      17 at    0.250000    0.500000    0.000000 (in units of recip. lattice)

  ESTIMATED overall HOMO-LUMO gap:      0.03063661 eV between HOMO at k-point 11 and LUMO at k-point 17
  | This appears to be an indirect band gap.
  | Smallest direct gap :      0.45001207 eV for k_point 11 at    0.250000    0.500000    0.000000 (in units of recip. lattice)
  However, this system has fractional occupation numbers. Since we use a finite k-point grid,
  this material is metallic within the approximate finite broadening function (occupation_type)
  applied to determine the occupation numbers.

  Total energy components:
  | Sum of eigenvalues            :      -23864.34294307 Ha     -649381.81166366 eV
  | XC energy correction          :       -1284.32348189 Ha      -34948.22008813 eV
  | XC potential correction       :        1672.89618399 Ha       45521.82129126 eV
  | Free-atom electrostatic energy:      -16511.27287659 Ha     -449294.59482918 eV
  | Hartree energy correction     :           7.13768233 Ha         194.22621836 eV
  | vdW energy correction         :           0.00000000 Ha           0.00000000 eV
  | Entropy correction            :          -0.00006279 Ha          -0.00170870 eV
  | ---------------------------
  | Total energy                  :      -39979.90543522 Ha    -1087908.57907134 eV
  | Total energy, T -> 0          :      -39979.90549801 Ha    -1087908.58078004 eV  <-- do not rely on this value for anything but (periodic) metals
  | Electronic free energy        :      -39979.90556080 Ha    -1087908.58248874 eV

  Derived energy quantities:
  | Kinetic energy                :       41145.63880923 Ha     1119629.79813603 eV
  | Electrostatic energy          :      -79841.22076255 Ha    -2172590.15711924 eV
  | Energy correction for multipole
  | error in Hartree potential    :          -0.00580052 Ha          -0.15784027 eV
  | Sum of eigenvalues per atom                           :      -54115.15097197 eV
  | Total energy (T->0) per atom                          :      -90659.04839834 eV  <-- do not rely on this value for anything but (periodic) metals
  | Electronic free energy per atom                       :      -90659.04854073 eV

  Self-consistency convergence accuracy:
  | Change of charge density      :  0.6656E-04
  | Change of sum of eigenvalues  :  0.2682E-01 eV
  | Change of total energy        : -0.6320E-06 eV

  End self-consistency iteration #    17       :  max(cpu_time)    wall_clock(cpu1)
  | Time for this iteration                    :       10.557 s          10.557 s
  | Charge density update                      :        5.068 s           5.067 s
  | Density mixing & preconditioning           :        0.843 s           0.843 s
  | Hartree multipole update                   :        0.004 s           0.004 s
  | Hartree multipole summation                :        1.703 s           1.703 s
  | Integration                                :        2.641 s           2.641 s
  | Solution of K.-S. eqns.                    :        0.297 s           0.297 s
  | Total energy evaluation                    :        0.000 s           0.000 s

  Partial memory accounting:
  | Current value for overall tracked memory usage:
  |   Minimum:       23.280 MB (on task  0)
  |   Maximum:       25.380 MB (on task  1)
  |   Average:       24.330 MB
  | Peak value for overall tracked memory usage:
  |   Minimum:       36.659 MB (on task 16 after allocating eval_tmp)
  |   Maximum:       39.327 MB (on task  2 after allocating wave)
  |   Average:       37.969 MB
  | Largest tracked array allocation so far:
  |   Minimum:        9.733 MB (overlap_matrix on task  0)
  |   Maximum:        9.733 MB (overlap_matrix on task  0)
  |   Average:        9.733 MB
  Note:  These values currently only include a subset of arrays which are explicitly tracked.
  The "true" memory usage will be greater.
------------------------------------------------------------

------------------------------------------------------------
          Begin self-consistency iteration #   18

  Date     :  20200420, Time     :  113809.720
------------------------------------------------------------
  Evaluating new KS density using the density matrix
  Evaluating density matrix
