3
Lattice="3.18406646468459 0.0 0.0 -1.5920332323423 2.75748244575496 0.0 0.0 0.0 18.1271126463515" Properties=species:S:1:pos:R:3:forces:R:3:dipole:R:1 energy=-22.1210356254374 stress="1.91017993726325e-05 8.29557122987154e-19 4.82865797231878e-29 8.29557122987154e-19 1.91017993726333e-05 9.65731594463756e-29 4.82865797231878e-29 9.65731594463756e-29 0.000240371023119028" magmom=0.0 free_energy=-22.1210356276194 pbc="T T F"
Mo       0.00000000       0.00000000       9.06355632       0.00000000       0.00000000      -0.00000001       3.41432956 
S       1.59203323       0.91916082      10.62711265       0.00000000       0.00000000      -0.00705600      -1.97126409 
S       1.59203323       0.91916082       7.50000000       0.00000000       0.00000000       0.00705597       0.00000000 
