------------------------------------------------------------
          Invoking FHI-aims ...

          When using FHI-aims, please cite the following reference:

          Volker Blum, Ralf Gehrke, Felix Hanke, Paula Havu,
          Ville Havu, Xinguo Ren, Karsten Reuter, and Matthias Scheffler,
          'Ab Initio Molecular Simulations with Numeric Atom-Centered Orbitals',
          Computer Physics Communications 180, 2175-2196 (2009)

          For any questions about FHI-aims, please visit the aimsclub website
          with its forums and wiki. Contributions to both the forums and the
          wiki are warmly encouraged - they are for you, and everyone is welcome there.

------------------------------------------------------------



  Date     :  20200320, Time     :  120000.468
  Time zero on CPU 1             :   0.645810000000000E-01  s.
  Internal wall clock time zero  :           353937600.468  s.

  FHI-aims created a unique identifier for this run for later identification
  aims_uuid : D4EA7E2E-CF10-4D29-A0DC-02D6BCBFC6DE

  Build configuration of the current instance of FHI-aims
  -------------------------------------------------------
  FHI-aims version      : 200112
  Commit number         : 23daeca3f
  CMake host system     : Linux-3.10.0-693.21.1.el7.x86_64
  CMake version         : 3.13.3
  Fortran compiler      : /sw/installed/impi/2018.4.274-iccifort-2019.1.144-GCC-8.2.0-2.31.1/bin64/mpiifort (Intel) version 19.0.0.20181018
  Fortran compiler flags: -O3 -ip -fp-model precise
  C compiler            : /sw/installed/impi/2018.4.274-iccifort-2019.1.144-GCC-8.2.0-2.31.1/bin64/mpiicc (Intel) version 19.0.0.20181018
  C compiler flags      : -O3 -ip -fp-model precise
  Architecture          :
  Using MPI
  Using Scalapack
  Using C files
  Using LibXC
  Using SPGlib
  Using i-PI
  Using RLSY
  Linking against: /sw/installed/imkl/2019.1.144-iimpi-2019a/mkl/lib/intel64/libmkl_intel_lp64.so
                   /sw/installed/imkl/2019.1.144-iimpi-2019a/mkl/lib/intel64/libmkl_sequential.so
                   /sw/installed/imkl/2019.1.144-iimpi-2019a/mkl/lib/intel64/libmkl_core.so
                   /sw/installed/imkl/2019.1.144-iimpi-2019a/mkl/lib/intel64/libmkl_blacs_intelmpi_lp64.so
                   /sw/installed/imkl/2019.1.144-iimpi-2019a/mkl/lib/intel64/libmkl_scalapack_lp64.so

  Using       24 parallel tasks.
  Task        0 on host taurusi5237.taurus.hrsk.tu-dresden.de reporting.
  Task        1 on host taurusi5237.taurus.hrsk.tu-dresden.de reporting.
  Task        2 on host taurusi5237.taurus.hrsk.tu-dresden.de reporting.
  Task        3 on host taurusi5237.taurus.hrsk.tu-dresden.de reporting.
  Task        4 on host taurusi5237.taurus.hrsk.tu-dresden.de reporting.
  Task        5 on host taurusi5237.taurus.hrsk.tu-dresden.de reporting.
  Task        6 on host taurusi5237.taurus.hrsk.tu-dresden.de reporting.
  Task        7 on host taurusi5237.taurus.hrsk.tu-dresden.de reporting.
  Task        8 on host taurusi5237.taurus.hrsk.tu-dresden.de reporting.
  Task        9 on host taurusi5237.taurus.hrsk.tu-dresden.de reporting.
  Task       10 on host taurusi5237.taurus.hrsk.tu-dresden.de reporting.
  Task       11 on host taurusi5237.taurus.hrsk.tu-dresden.de reporting.
  Task       12 on host taurusi5237.taurus.hrsk.tu-dresden.de reporting.
  Task       13 on host taurusi5237.taurus.hrsk.tu-dresden.de reporting.
  Task       14 on host taurusi5237.taurus.hrsk.tu-dresden.de reporting.
  Task       15 on host taurusi5237.taurus.hrsk.tu-dresden.de reporting.
  Task       16 on host taurusi5237.taurus.hrsk.tu-dresden.de reporting.
  Task       17 on host taurusi5237.taurus.hrsk.tu-dresden.de reporting.
  Task       18 on host taurusi5237.taurus.hrsk.tu-dresden.de reporting.
  Task       19 on host taurusi5237.taurus.hrsk.tu-dresden.de reporting.
  Task       20 on host taurusi5237.taurus.hrsk.tu-dresden.de reporting.
  Task       21 on host taurusi5237.taurus.hrsk.tu-dresden.de reporting.
  Task       22 on host taurusi5237.taurus.hrsk.tu-dresden.de reporting.
  Task       23 on host taurusi5237.taurus.hrsk.tu-dresden.de reporting.

  Performing system and environment tests:
  | Environment variable OMP_NUM_THREADS correctly set to 1.
  | Maximum stacksize for task 0: unlimited
  | Maximum stacksize for task 1: unlimited
  | Maximum stacksize for task 2: unlimited
  | Maximum stacksize for task 3: unlimited
  | Maximum stacksize for task 4: unlimited
  | Maximum stacksize for task 5: unlimited
  | Maximum stacksize for task 6: unlimited
  | Maximum stacksize for task 7: unlimited
  | Maximum stacksize for task 8: unlimited
  | Maximum stacksize for task 9: unlimited
  | Maximum stacksize for task 10: unlimited
  | Maximum stacksize for task 11: unlimited
  | Maximum stacksize for task 12: unlimited
  | Maximum stacksize for task 13: unlimited
  | Maximum stacksize for task 14: unlimited
  | Maximum stacksize for task 15: unlimited
  | Maximum stacksize for task 16: unlimited
  | Maximum stacksize for task 17: unlimited
  | Maximum stacksize for task 18: unlimited
  | Maximum stacksize for task 19: unlimited
  | Maximum stacksize for task 20: unlimited
  | Maximum stacksize for task 21: unlimited
  | Maximum stacksize for task 22: unlimited
  | Maximum stacksize for task 23: unlimited
  | Current stacksize for task 0: unlimited
  | Current stacksize for task 1: unlimited
  | Current stacksize for task 2: unlimited
  | Current stacksize for task 3: unlimited
  | Current stacksize for task 4: unlimited
  | Current stacksize for task 5: unlimited
  | Current stacksize for task 6: unlimited
  | Current stacksize for task 7: unlimited
  | Current stacksize for task 8: unlimited
  | Current stacksize for task 9: unlimited
  | Current stacksize for task 10: unlimited
  | Current stacksize for task 11: unlimited
  | Current stacksize for task 12: unlimited
  | Current stacksize for task 13: unlimited
  | Current stacksize for task 14: unlimited
  | Current stacksize for task 15: unlimited
  | Current stacksize for task 16: unlimited
  | Current stacksize for task 17: unlimited
  | Current stacksize for task 18: unlimited
  | Current stacksize for task 19: unlimited
  | Current stacksize for task 20: unlimited
  | Current stacksize for task 21: unlimited
  | Current stacksize for task 22: unlimited
  | Current stacksize for task 23: unlimited
  | Checking for scalapack...
  | Testing pdtran()...
  | All pdtran() tests passed.

  Obtaining array dimensions for all initial allocations:
  
  -----------------------------------------------------------------------
  Parsing control.in (first pass over file, find array dimensions only).
  The contents of control.in will be repeated verbatim below
  unless switched off by setting 'verbatim_writeout .false.' .
  in the first line of control.in .
  -----------------------------------------------------------------------
  
  #===============================================================================
  # FHI-aims file: ./control.in
  # Created using the Atomic Simulation Environment (ASE)
  # Thu Mar 19 17:13:25 2020
  #===============================================================================
  xc                                 pbe
  # include_spin_orbit
  # vdw_correction_hirshfeld
  # many_body_dispersion_nl 	 beta=0.81
  spin                               none
  k_grid 	 	 5 5 4
  relativistic                       atomic_zora scalar
  ### SCF settings
  adjust_scf 	 always 	 3
  # frozen_core_scf 	 .true.
  charge_mix_param  0.02
  occupation_type 	 gaussian 	 0.02
  # sc_accuracy_eev   1E-3 	 	 # sum of eigenvalues convergence
  # sc_accuracy_etot  1E-6 	 	 # total energy convergence
  # sc_accuracy_rho   1E-3 	 	 # electron density convergence
  # elsi_restart 	 read_and_write 	 1000
  #===============================================================================
  
  ################################################################################
  #
  #  FHI-aims code project
  # Volker Blum, Fritz Haber Institute Berlin, 2009
  #
  #  Suggested "tight" defaults for Mo atom (to be pasted into control.in file)
  #
  ################################################################################
    species        Mo
  #     global species definitions
      nucleus             42
      mass                95.94
  #
      l_hartree           6
  #
      cut_pot             4.0  2.0  1.0
      basis_dep_cutoff    1e-4
  #
      radial_base         59 7.0
      radial_multiplier   2
      angular_grids specified
        division   0.3117   50
        division   0.6750  110
        division   1.0351  194
        division   1.2073  302
        division   1.6402  434
  #      division   1.9185  590
  #      division   2.0237  770
  #      division   2.0980  974
  #      division   2.7972 1202
  #      outer_grid  974
        outer_grid  434
  ################################################################################
  #
  #  Definition of "minimal" basis
  #
  ################################################################################
  #     valence basis states
      valence      5  s   1.
      valence      4  p   6.
      valence      4  d   5.
  #     ion occupancy
      ion_occ     5  s   0.
      ion_occ     4  p   6.
      ion_occ     4  d   4.
  ################################################################################
  #
  #  Suggested additional basis functions. For production calculations,
  #  uncomment them one after another (the most important basis functions are
  #  listed first).
  #
  #  Constructed for dimers: 1.675 A, 1.9 A, 2.375 A, 3.00 A, 4.00 A
  #
  ################################################################################
  #  "First tier"  - max. impr. -711.23  meV, min. impr. -21.07 meV
       hydro 4 f 8.4
       hydro 3 d 2.8
       ionic 5 p auto
       hydro 5 g 12
       ionic 5 s auto
  #  "Second tier" - max. impr. -39.38  meV, min. impr. -2.68 meV
  #     hydro 4 f 12.4
  #     hydro 3 d 3.3
  #     hydro 6 h 17.2
  #     hydro 4 f 7.6
  #     hydro 3 p 3.0
  #     hydro 1 s 0.65
  #  "Third tier"  - max. impr. -5.50 meV, min. impr. -0.47 meV
  #     hydro 4 f 29.2
  #     hydro 5 g 11.2
  #     hydro 3 d 6.8
  #     hydro 6 h 14.8
  #     hydro 2 p 2.3
  #     hydro 4 s 3.8
  #  "Fourth tier"  - max. impr. -0.58 meV, min. impr. -0.19 meV
  #     hydro 5 f 6.8
  #     hydro 5 d 14.8
  #     hydro 6 s 7.8
  #     hydro 5 g 20.8
  #     hydro 5 d 10.4
  #     hydro 5 p 9.8
  #  Further functions - -0.17 meV and below
  #     hydro 5 d 3.2
  ################################################################################
  #
  #  FHI-aims code project
  # Volker Blum, Fritz Haber Institute Berlin, 2009
  #
  #  Suggested "tight" defaults for S atom (to be pasted into control.in file)
  #
  #  Revised Jan 04, 2011, following tests (SiC) done by Lydia Nemec:
  #     d and g functions of tier 2 now enabled by default.
  #
  ################################################################################
    species        S
  #     global species definitions
      nucleus             16
      mass                32.065
  #
      l_hartree           6
  #
      cut_pot             4.0          2.0  1.0
      basis_dep_cutoff    1e-4
  #
      radial_base         44 7.0
      radial_multiplier   2
      angular_grids       specified
        division   0.4665  110
        division   0.5810  194
        division   0.7139  302
        division   0.8274  434
  #      division   0.9105  590
  #      division   1.0975  770
  #      division   1.2028  974
  #      outer_grid  974
        outer_grid  434
  ################################################################################
  #
  #  Definition of "minimal" basis
  #
  ################################################################################
  #     valence basis states
      valence      3  s   2.
      valence      3  p   4.
  #     ion occupancy
      ion_occ      3  s   1.
      ion_occ      3  p   3.
  ################################################################################
  #
  #  Suggested additional basis functions. For production calculations,
  #  uncomment them one after another (the most important basis functions are
  #  listed first).
  #
  #  Constructed for dimers: 1.6 A, 1.9 A, 2.5 A, 3.25 A, 4.0 A
  #
  ################################################################################
  #  "First tier" - improvements: -652.81 meV to -45.53 meV
       ionic 3 d auto
       hydro 2 p 1.8
       hydro 4 f 7
       ionic 3 s auto
  #  "Second tier" - improvements: -30.20 meV to -1.74 meV
  #     hydro 4 d 6.2
  #     hydro 5 g 10.8
  #     hydro 4 p 4.9
  #     hydro 5 f 10
  #     hydro 1 s 0.8
  #  "Third tier" - improvements: -1.04 meV to -0.20 meV
  #     hydro 3 d 3.9
  #     hydro 3 d 2.7
  #     hydro 5 g 12
  #     hydro 4 p 10.4
  #     hydro 5 f 12.4
  #     hydro 2 s 1.9
  #  "Fourth tier" - improvements: -0.35 meV to -0.06 meV
  #     hydro 4 d 10.4
  #     hydro 4 p 7.2
  #     hydro 4 d 10
  #     hydro 5 g 19.2
  #     hydro 4 s 12
  #
  ################################################################################
  #
  # For methods that use the localized form of the "resolution of identity" for
  # the two-electron Coulomb operator (RI_method LVL), particularly Hartree-Fock and
  # hybrid density functional calculations, the highest accuracy can be obtained by
  # uncommenting the line beginning with "for_aux"  below, thus adding an extra g radial
  # function to the construction of the product basis set for the expansion.
  # See Ref. New J. Phys. 17, 093020 (2015) for more information, particularly Figs. 1 and 6.
  #
  ################################################################################
  #
  # for_aux hydro 5 g 6.0
  
  -----------------------------------------------------------------------
  Completed first pass over input file control.in .
  -----------------------------------------------------------------------
  
  
  -----------------------------------------------------------------------
  Parsing geometry.in (first pass over file, find array dimensions only).
  The contents of geometry.in will be repeated verbatim below
  unless switched off by setting 'verbatim_writeout .false.' .
  in the first line of geometry.in .
  -----------------------------------------------------------------------
  
  #=======================================================
  # FHI-aims file: ./geometry.in
  # Created using the Atomic Simulation Environment (ASE)
  # Thu Mar 19 17:13:25 2020
  #=======================================================
  lattice_vector 3.1600000000000001 0.0000000000000000 0.0000000000000000
  lattice_vector -1.5800000000000001 2.7366402800000000 0.0000000000000000
  lattice_vector 0.0000000000000000 0.0000000000000000 12.3000000000000007
  atom_frac 0.3333333327243141 0.6666666654486282 0.2500000000000000 Mo
  atom_frac 0.6666666672756860 0.3333333345513719 0.7500000000000000 Mo
  atom_frac 0.3333333327243141 0.6666666654486282 0.8784999999999999 S
  atom_frac 0.6666666672756860 0.3333333345513719 0.3785000000000000 S
  atom_frac 0.6666666672756860 0.3333333345513719 0.1215000000000000 S
  atom_frac 0.3333333327243141 0.6666666654486282 0.6214999999999999 S
  
  -----------------------------------------------------------------------
  Completed first pass over input file geometry.in .
  -----------------------------------------------------------------------
  

  Basic array size parameters:
  | Number of species                 :        2
  | Number of atoms                   :        6
  | Number of lattice vectors         :        3
  | Max. basis fn. angular momentum   :        4
  | Max. atomic/ionic basis occupied n:        5
  | Max. number of basis fn. types    :        3
  | Max. radial fns per species/type  :       10
  | Max. logarithmic grid size        :     1436
  | Max. radial integration grid size :      119
  | Max. angular integration grid size:      434
  | Max. angular grid division number :        8
  | Radial grid for Hartree potential :     1436
  | Number of spin channels           :        1

------------------------------------------------------------
          Reading file control.in.
------------------------------------------------------------
  XC: Using PBE gradient-corrected functionals.
  Spin treatment: No spin polarisation.
  Found k-point grid:         5         5         4
  Scalar relativistic treatment of kinetic energy: on-site free-atom approximation to ZORA.
  S.C.F. convergence parameters will be adjusted in iteration number     3 of each new s.c.f. cycle.
  Charge density mixing - mixing parameter:     0.0200
  Occupation type: Gaussian broadening, width =   0.200000E-01 eV.
 
  Reading configuration options for species Mo                  .
  | Found nuclear charge :  42.0000
  | Found atomic mass :    95.9400000000000      amu
  | Found l_max for Hartree potential  :   6
  | Found cutoff potl. onset [A], width [A], scale factor :    4.00000    2.00000    1.00000
  | Threshold for basis-dependent cutoff potential is   0.100000E-03
  | Found data for basic radial integration grid :    59 points, outermost radius =    7.000 A
  | Found multiplier for basic radial grid :   2
  | Found angular grid specification: user-specified.
  | Specified grid contains     6 separate shells.
  | Check grid settings after all constraints further below.
  | Found free-atom valence shell :  5 s   1.000
  | Found free-atom valence shell :  4 p   6.000
  | Found free-atom valence shell :  4 d   5.000
  | Found free-ion valence shell :  5 s   0.000
  | Found free-ion valence shell :  4 p   6.000
  | Found free-ion valence shell :  4 d   4.000
  | Found hydrogenic basis function :  4 f   8.400
  | Found hydrogenic basis function :  3 d   2.800
  | Found ionic basis function :  5 p , default cutoff radius.
  | Found hydrogenic basis function :  5 g  12.000
  | Found ionic basis function :  5 s , default cutoff radius.
  Species Mo                  : Missing cutoff potential type.
  Defaulting to exp(1/x)/(1-x)^2 type cutoff potential.
  Species Mo: No 'logarithmic' tag. Using default grid for free atom:
  | Default logarithmic grid data [bohr] : 0.1000E-03 0.1000E+03 0.1012E+01
  | Will include ionic basis functions of  2.0-fold positive Mo                   ion.
  Species Mo: On-site basis accuracy parameter (for Gram-Schmidt orthonormalisation) not specified.
  Using default value basis_acc =  0.1000000E-03.
  Species Mo                  : Using default innermost maximum threshold i_radial=  2 for radial functions.
  Species Mo                  : Default cutoff onset for free atom density etc. : 0.40000000E+01 AA.
  Species Mo                  : Basic radial grid will be enhanced according to radial_multiplier =   2, to contain   119 grid points.
 
  Reading configuration options for species S                   .
  | Found nuclear charge :  16.0000
  | Found atomic mass :    32.0650000000000      amu
  | Found l_max for Hartree potential  :   6
  | Found cutoff potl. onset [A], width [A], scale factor :    4.00000    2.00000    1.00000
  | Threshold for basis-dependent cutoff potential is   0.100000E-03
  | Found data for basic radial integration grid :    44 points, outermost radius =    7.000 A
  | Found multiplier for basic radial grid :   2
  | Found angular grid specification: user-specified.
  | Specified grid contains     5 separate shells.
  | Check grid settings after all constraints further below.
  | Found free-atom valence shell :  3 s   2.000
  | Found free-atom valence shell :  3 p   4.000
  | Found free-ion valence shell :  3 s   1.000
  | Found free-ion valence shell :  3 p   3.000
  | Found ionic basis function :  3 d , default cutoff radius.
  | Found hydrogenic basis function :  2 p   1.800
  | Found hydrogenic basis function :  4 f   7.000
  | Found ionic basis function :  3 s , default cutoff radius.
  Species S                   : Missing cutoff potential type.
  Defaulting to exp(1/x)/(1-x)^2 type cutoff potential.
  Species S : No 'logarithmic' tag. Using default grid for free atom:
  | Default logarithmic grid data [bohr] : 0.1000E-03 0.1000E+03 0.1012E+01
  | Will include ionic basis functions of  2.0-fold positive S                    ion.
  Species S : On-site basis accuracy parameter (for Gram-Schmidt orthonormalisation) not specified.
  Using default value basis_acc =  0.1000000E-03.
  Species S                   : Using default innermost maximum threshold i_radial=  2 for radial functions.
  Species S                   : Default cutoff onset for free atom density etc. : 0.40000000E+01 AA.
  Species S                   : Basic radial grid will be enhanced according to radial_multiplier =   2, to contain    89 grid points.
 
  Finished reading input file 'control.in'. Consistency checks are next.
 
  MPI_IN_PLACE appears to work with this MPI implementation.
  | Keeping use_mpi_in_place .true. (see manual).
  Target number of points in a grid batch is not set. Defaulting to  100
  Method for grid partitioning is not set. Defaulting to parallel hash+maxmin partitioning.
  Batch size limit is not set. Defaulting to    200
  By default, will store active basis functions for each batch.
  If in need of memory, prune_basis_once .false. can be used to disable this option.
  communication_type for Hartree potential was not specified.
  Defaulting to calc_hartree .
  Defaulting to Pulay charge density mixer.
  Pulay mixer: Number of relevant iterations not set.
  Defaulting to    8 iterations.
  Pulay mixer: Number of initial linear mixing iterations not set.
  Defaulting to    0 iterations.
  Work space size for distributed Hartree potential not set.
  Defaulting to   0.200000E+03 MB.
  Algorithm-dependent basis array size parameters:
  | n_max_pulay                         :        8
  Maximum number of self-consistency iterations not provided.
  Presetting  1000 iterations.
  Presetting      1001 iterations before the initial mixing cycle
  is restarted anyway using the sc_init_iter criterion / keyword.
  Presetting a factor      1.000 between actual scf density residual
  and density convergence criterion sc_accuracy_rho below which sc_init_iter
  takes no effect.
 * No s.c.f. convergence criteria (sc_accuracy_*) were provided in control.in.
 * The run will proceed with a reasonable default guess, but please check whether.
 * the s.c.f. cycles seem to take too much or too little time.
  Calculation of forces was not defined in control.in. No forces will be calculated.
  Geometry relaxation not requested: no relaxation will be performed.
 * Notice: The s.c.f. convergence criterion sc_accuracy_rho was not provided.
 * We used to stop in this case, and ask the user to provide reasonable
 * scf convergence criteria. However, this led some users to employ criteria
 * that led to extremely long run times, e.g., for simple relaxation.
 * We now preset a default value for sc_accuracy_rho if it is not set.
 * You may still wish to check if this setting is too tight or too loose for your needs.
 * Based on n_atoms, FHI-aims chose sc_accuracy_rho =  0.100000E-05 .
  No accuracy limit for integral partition fn. given. Defaulting to  0.1000E-14.
  No threshold value for u(r) in integrations given. Defaulting to  0.1000E-05.
  No accuracy for occupation numbers given. Defaulting to  0.1000E-12.
  No threshold value for occupation numbers given. Defaulting to  0.0000E+00.
  No accuracy for fermi level given. Defaulting to  0.1000E-19.
  Maximum # of iterations to find E_F not set. Defaulting to  200.
  Preferred method for the eigenvalue solver ('KS_method') not specified in 'control.in'.
  Defaulting to serial version, LAPACK (via ELSI), since more k-points than CPUs available.
  Will not use alltoall communication since running on < 1024 CPUs.
  Threshold for basis singularities not set.
  Default threshold for basis singularities:  0.1000E-04
  partition_type (choice of integration weights) for integrals was not specified.
  | Using a version of the partition function of Stratmann and coworkers ('stratmann_sparse').
  | At each grid point, the set of atoms used to build the partition table is smoothly restricted to
  | only those atoms whose free-atom density would be non-zero at that grid point.
  Partitioning for Hartree potential was not defined. Using partition_type for integrals.
  | Adjusted default value of keyword multip_moments_threshold to:       0.10000000E-11
  | This value may affect high angular momentum components of the Hartree potential in periodic systems.
  Angular momentum expansion for Kerker preconditioner not set explicitly.
  | Using default value of   0
  No explicit requirement for turning off preconditioner.
  | By default, it will be turned off when the charge convergence reaches
  | sc_accuracy_rho  =   0.100000E-05
  No special mixing parameter while Kerker preconditioner is on.
  Using default: charge_mix_param =     0.0200.
  No q(lm)/r^(l+1) cutoff set for long-range Hartree potential.
  | Using default value of  0.100000E-09 .
  | Verify using the multipole_threshold keyword.
  Defaulting to new monopole extrapolation.
  Density update method: automatic selection selected.
  Using density matrix based charge density update.
  Using density matrix based charge density update.
  Using packed matrix style: index .
  Defaulting to use time-reversal symmetry for k-point grid.
  Charge integration errors on the 3D integration grid will be compensated
  by explicit normalization and distribution of residual charges.
  Use the "compensate_multipole_errors" flag to change this behaviour.
------------------------------------------------------------


------------------------------------------------------------
          Reading geometry description geometry.in.
------------------------------------------------------------
  Input structure read successfully.
  The structure contains        6 atoms,  and a total of        148.000 electrons.

  Input geometry:
  | Unit cell:
  |        3.16000000        0.00000000        0.00000000
  |       -1.58000000        2.73664028        0.00000000
  |        0.00000000        0.00000000       12.30000000
  | Atomic structure:
  |       Atom                x [A]            y [A]            z [A]
  |    1: Species Mo            0.00000000        1.82442685        3.07500000
  |    2: Species Mo            1.58000000        0.91221343        9.22500000
  |    3: Species S             0.00000000        1.82442685       10.80555000
  |    4: Species S             1.58000000        0.91221343        4.65555000
  |    5: Species S             1.58000000        0.91221343        1.49445000
  |    6: Species S             0.00000000        1.82442685        7.64445000

  Lattice parameters for 3D lattice (in Angstroms) :     3.160000    3.160000   12.300000
  Angle(s) between unit vectors (in degrees)       :    90.000000   90.000000  120.000000

  | The smallest distance between any two atoms is         2.41384996 AA.
  | The first atom of this pair is atom number                      3 .
  | The second atom of this pair is atom number                     2 .
  | Wigner-Seitz cell of the first atom image          -1     1     0 .
  | (The Wigner-Seitz cell of the second atom is 0 0 0  by definition.)

  Symmetry information by spglib:
  | Precision set to  0.1E-04
  | Number of Operations  : 24
  | Space group           : 194
  | International         : P6_3/mmc
  | Schoenflies           : D6h^4

  Quantities derived from the lattice vectors:
  | Reciprocal lattice vector 1:  1.988350  1.147974  0.000000
  | Reciprocal lattice vector 2:  0.000000  2.295949  0.000000
  | Reciprocal lattice vector 3:  0.000000  0.000000  0.510828
  | Unit cell volume                               :   0.106368E+03  A^3

  Range separation radius for Ewald summation (hartree_convergence_parameter):      3.71769546 bohr.

  Fractional coordinates:
                         L1                L2                L3
       atom_frac         0.33333333        0.66666667        0.25000000  Mo
       atom_frac         0.66666667        0.33333333        0.75000000  Mo
       atom_frac         0.33333333        0.66666667        0.87850000  S
       atom_frac         0.66666667        0.33333333        0.37850000  S
       atom_frac         0.66666667        0.33333333        0.12150000  S
       atom_frac         0.33333333        0.66666667        0.62150000  S

  Number of empty states per atom not set in control.in - providing a guess from actual geometry.
  | Total number of empty states used during s.c.f. cycle:       23
  If you use a very high smearing, use empty_states (per atom!) in control.in to increase this value.

  Structure-dependent array size parameters: 
  | Maximum number of distinct radial functions  :       24
  | Maximum number of basis functions            :      198
  | Number of Kohn-Sham states (occupied + empty):       97
------------------------------------------------------------

------------------------------------------------------------
          Preparing all fixed parts of the calculation.
------------------------------------------------------------
  Determining machine precision:
    2.225073858507201E-308
  Setting up grids for atomic and cluster calculations.

  Creating wave function, potential, and density for free atoms.

  Species: Mo

  List of occupied orbitals and eigenvalues:
    n    l              occ      energy [Ha]    energy [eV]
    1    0           2.0000      -745.344654    -20281.8600
    2    0           2.0000      -103.288246     -2810.6162
    3    0           2.0000       -17.516687      -476.6533
    4    0           2.0000        -2.358559       -64.1796
    5    0           1.0000        -0.145159        -3.9500
    2    1           6.0000       -92.308627     -2511.8455
    3    1           6.0000       -13.936005      -379.2180
    4    1           6.0000        -1.408138       -38.3174
    3    2          10.0000        -8.119011      -220.9295
    4    2           5.0000        -0.132984        -3.6187


  Species: S

  List of occupied orbitals and eigenvalues:
    n    l              occ      energy [Ha]    energy [eV]
    1    0           2.0000       -88.680731     -2413.1255
    2    0           2.0000        -7.781719      -211.7513
    3    0           2.0000        -0.633662       -17.2428
    2    1           6.0000        -5.751976      -156.5192
    3    1           4.0000        -0.257086        -6.9957

  Creating fixed part of basis set: Ionic, confined, hydrogenic.
 
  Mo                   ion:

  List of free ionic orbitals and eigenvalues:
    n    l      energy [Ha]    energy [eV]
    1    0      -746.048685    -20301.0176
    2    0      -103.980912     -2829.4646
    3    0       -18.206601      -495.4268
    4    0        -3.040545       -82.7374
    2    1       -93.001013     -2530.6863
    3    1       -14.625827      -397.9890
    4    1        -2.084855       -56.7318
    3    2        -8.808854      -239.7011
    4    2        -0.765435       -20.8285


  List of ionic basis orbitals and eigenvalues:
    n    l      energy [Ha]    energy [eV]    outer radius [A]
    5    1        -0.465587       -12.6693       5.456393
    5    0        -0.650331       -17.6964       5.390095

 
  Mo                   hydrogenic:
 
  List of hydrogenic basis orbitals: 
    n    l      effective z      eigenvalue [eV]  inner max. [A]     outer max. [A]     outer radius [A]   
    4    3         8.400000       -60.0010           1.009788           1.009788           4.487018
    3    2         2.800000       -11.8048           1.687401           1.687401           5.456393
    5    4        12.000000       -78.3687           1.100005           1.100005           4.432498
 
 
  S                    ion:

  List of free ionic orbitals and eigenvalues:
    n    l      energy [Ha]    energy [eV]
    1    0       -89.703778     -2440.9640
    2    0        -8.775428      -238.7916
    3    0        -1.470343       -40.0101
    2    1        -6.747660      -183.6132
    3    1        -1.048627       -28.5346


  List of ionic basis orbitals and eigenvalues:
    n    l      energy [Ha]    energy [eV]    outer radius [A]
    3    2        -0.495605       -13.4861       5.386362
    3    0        -1.470336       -40.0099       3.967934

 
  S                    hydrogenic:
 
  List of hydrogenic basis orbitals: 
    n    l      effective z      eigenvalue [eV]  inner max. [A]     outer max. [A]     outer radius [A]   
    2    1         1.800000       -11.0118           1.168531           1.168531           5.452614
    4    3         7.000000       -41.6672           1.212182           1.212182           5.066981
 

  Adding cutoff potential to free-atom effective potential.
  Creating atomic-like basis functions for current effective potential.

  Species Mo                  :

  List of atomic basis orbitals and eigenvalues:
    n    l      energy [Ha]    energy [eV]    outer radius [A]
    1    0      -745.344654    -20281.8600       0.247552
    2    0      -103.288246     -2810.6162       0.682864
    3    0       -17.516687      -476.6533       1.626637
    4    0        -2.358559       -64.1796       4.220963
    5    0        -0.145159        -3.9500       5.456393
    2    1       -92.308627     -2511.8455       0.699766
    3    1       -13.936005      -379.2180       1.793761
    4    1        -1.408138       -38.3174       4.828511
    3    2        -8.119011      -220.9295       2.181285
    4    2        -0.132984        -3.6187       5.390095


  Species S                   :

  List of atomic basis orbitals and eigenvalues:
    n    l      energy [Ha]    energy [eV]    outer radius [A]
    1    0       -88.680731     -2413.1255       0.682391
    2    0        -7.781719      -211.7513       2.289014
    3    0        -0.633662       -17.2428       5.256262
    2    1        -5.751976      -156.5192       2.555240
    3    1        -0.257086        -6.9957       5.386362

  Assembling full basis from fixed parts.
  | Species Mo :   atomic orbital   1 s accepted.
  | Species Mo :   atomic orbital   2 s accepted.
  | Species Mo :   atomic orbital   3 s accepted.
  | Species Mo :   atomic orbital   4 s accepted.
  | Species Mo :    ionic orbital   5 s accepted.
  | Species Mo :   atomic orbital   5 s accepted.
  | Species Mo :   atomic orbital   2 p accepted.
  | Species Mo :   atomic orbital   3 p accepted.
  | Species Mo :   atomic orbital   4 p accepted.
  | Species Mo :    ionic orbital   5 p accepted.
  | Species Mo :   atomic orbital   3 d accepted.
  | Species Mo :   atomic orbital   4 d accepted.
  | Species Mo :    hydro orbital   3 d accepted.
  | Species Mo :    hydro orbital   4 f accepted.
  | Species Mo :    hydro orbital   5 g accepted.
  | Species S :   atomic orbital   1 s accepted.
  | Species S :   atomic orbital   2 s accepted.
  | Species S :    ionic orbital   3 s accepted.
  | Species S :   atomic orbital   3 s accepted.
  | Species S :   atomic orbital   2 p accepted.
  | Species S :   atomic orbital   3 p accepted.
  | Species S :    hydro orbital   2 p accepted.
  | Species S :    ionic orbital   3 d accepted.
  | Species S :    hydro orbital   4 f accepted.
 
  Basis size parameters after reduction:
  | Total number of radial functions:       24
  | Total number of basis functions :      198
 
  Per-task memory consumption for arrays in subroutine allocate_ext:
  |           8.828912MB.
  Testing on-site integration grid accuracy.
  |  Species  Function  <phi|h_atom|phi> (log., in eV)  <phi|h_atom|phi> (rad., in eV)
           1        1             -20281.8599610543             -20281.8584300616
           1        2              -2810.6161812280              -2810.6161551921
           1        3               -476.6533163555               -476.6533136395
           1        4                -64.1796433667                -64.1796426456
           1        5                 -3.3691762756                 -3.3691802887
           1        6                  4.4704608512                  4.4699102345
           1        7              -2511.8455406047              -2511.8455385741
           1        8               -379.2179896350               -379.2179882338
           1        9                -38.3173891619                -38.3173886619
           1       10                  0.2493245095                  0.2492931069
           1       11               -220.9295301098               -220.9295297081
           1       12                 -3.6195697699                 -3.6195754704
           1       13                  7.1428000922                  7.1426882355
           1       14                 23.3975871087                 23.3975871819
           1       15                 50.2449608881                 50.2449608586
           2       16              -2413.1254568977              -2413.1254096663
           2       17               -211.7513411281               -211.7513404762
           2       18                -16.9725280787                -16.9725279206
           2       19                  7.6024436204                  7.6024549059
           2       20               -156.5192206929               -156.5192205451
           2       21                 -6.9959757887                 -6.9959777655
           2       22                  6.8896462808                  6.8895564741
           2       23                  6.0214250550                  6.0214220200
           2       24                 24.7008710786                 24.7008710738

  Preparing densities etc. for the partition functions (integrals / Hartree potential).

  Preparations completed.
  max(cpu_time)          :      0.495 s.
  Wall clock time (cpu1) :      0.530 s.
------------------------------------------------------------

------------------------------------------------------------
          Begin self-consistency loop: Initialization.

          Date     :  20200320, Time     :  120001.362
------------------------------------------------------------

  Initializing index lists of integration centers etc. from given atomic structure:
  Mapping all atomic coordinates to central unit cell.

  Initializing the k-points
  Using symmetry for reducing the k-points
  | k-points reduced from:      100 to       51
  | Number of k-points                             :        51
  The eigenvectors in the calculations are COMPLEX.
  | K-points in task   0:         2
  | K-points in task   1:         3
  | K-points in task   2:         3
  | K-points in task   3:         3
  | K-points in task   4:         2
  | K-points in task   5:         2
  | K-points in task   6:         2
  | K-points in task   7:         2
  | K-points in task   8:         2
  | K-points in task   9:         2
  | K-points in task  10:         2
  | K-points in task  11:         2
  | K-points in task  12:         2
  | K-points in task  13:         2
  | K-points in task  14:         2
  | K-points in task  15:         2
  | K-points in task  16:         2
  | K-points in task  17:         2
  | K-points in task  18:         2
  | K-points in task  19:         2
  | K-points in task  20:         2
  | K-points in task  21:         2
  | K-points in task  22:         2
  | K-points in task  23:         2
  | Number of basis functions in the Hamiltonian integrals :      5302
  | Number of basis functions in a single unit cell        :       198
  | Number of centers in hartree potential         :      1352
  | Number of centers in hartree multipole         :       886
  | Number of centers in electron density summation:       618
  | Number of centers in basis integrals           :       696
  | Number of centers in integrals                 :       262
  | Number of centers in hamiltonian               :       618
  | Consuming        138 KiB for k_phase.
  | Number of super-cells (origin) [n_cells]                     :        1125
  | Number of super-cells (after PM_index) [n_cells]             :         174
  | Number of super-cells in hamiltonian [n_cells_in_hamiltonian]:         174
  | Size of matrix packed + index [n_hamiltonian_matrix_size] :      639429
  | Estimated reciprocal-space cutoff momentum G_max:         2.63019706 bohr^-1 .
  | Reciprocal lattice points for long-range Hartree potential:     228
  Partitioning the integration grid into batches with parallel hashing+maxmin method.
  | Number of batches:     1806
  | Maximal batch size:     126
  | Minimal batch size:      51
  | Average batch size:      81.947
  | Standard deviation of batch sizes:      15.605

  Integration load balanced across    24 MPI tasks.
  Work distribution over tasks is as follows:
  Task     0 has       6173 integration points.
  Task     1 has       6148 integration points.
  Task     2 has       6150 integration points.
  Task     3 has       6222 integration points.
  Task     4 has       6164 integration points.
  Task     5 has       6216 integration points.
  Task     6 has       6218 integration points.
  Task     7 has       6163 integration points.
  Task     8 has       6145 integration points.
  Task     9 has       6169 integration points.
  Task    10 has       6176 integration points.
  Task    11 has       6151 integration points.
  Task    12 has       6179 integration points.
  Task    13 has       6160 integration points.
  Task    14 has       6155 integration points.
  Task    15 has       6182 integration points.
  Task    16 has       6126 integration points.
  Task    17 has       6146 integration points.
  Task    18 has       6145 integration points.
  Task    19 has       6128 integration points.
  Task    20 has       6158 integration points.
  Task    21 has       6173 integration points.
  Task    22 has       6178 integration points.
  Task    23 has       6171 integration points.
  Initializing partition tables, free-atom densities, potentials, etc. across the integration grid (initialize_grid_storage).
  | initialize_grid_storage: Actual outermost partition radius vs. multipole_radius_free
  | (-- VB: in principle, multipole_radius_free should be larger, hence this output)
  | Species        1: Confinement radius =              6.000000000000000 AA, multipole_radius_free =              6.016994434057369 AA.
  | Species        1: outer_partition_radius set to              6.016994434057369 AA .
  | Species        2: Confinement radius =              6.000000000000000 AA, multipole_radius_free =              6.012827091137924 AA.
  | Species        2: outer_partition_radius set to              6.012827091137924 AA .
  | The sparse table of interatomic distances needs       3735.65 kbyte instead of      3875.33 kbyte of memory.
  | Net number of integration points:   147996
  | of which are non-zero points    :   115578
  | Numerical average free-atom electrostatic potential    :    -18.25642459 eV
  Renormalizing the initial density to the exact electron count on the 3D integration grid.
  | Initial density: Formal number of electrons (from input files) :     148.0000000000
  | Integrated number of electrons on 3D grid     :     147.9998291670
  | Charge integration error                      :      -0.0001708330
  | Normalization factor for density and gradient :       1.0000011543
  Renormalizing the free-atom superposition density to the exact electron count on the 3D integration grid.
  | Formal number of electrons (from input files) :     148.0000000000
  | Integrated number of electrons on 3D grid     :     147.9998291670
  | Charge integration error                      :      -0.0001708330
  | Normalization factor for density and gradient :       1.0000011543
  Obtaining max. number of non-zero basis functions in each batch (get_n_compute_maxes).
  | Maximal number of non-zero basis functions:     1182 in task     0
  | Maximal number of non-zero basis functions:     1153 in task     1
  | Maximal number of non-zero basis functions:     1168 in task     2
  | Maximal number of non-zero basis functions:     1209 in task     3
  | Maximal number of non-zero basis functions:     1203 in task     4
  | Maximal number of non-zero basis functions:     1201 in task     5
  | Maximal number of non-zero basis functions:     1141 in task     6
  | Maximal number of non-zero basis functions:     1153 in task     7
  | Maximal number of non-zero basis functions:     1183 in task     8
  | Maximal number of non-zero basis functions:     1124 in task     9
  | Maximal number of non-zero basis functions:     1169 in task    10
  | Maximal number of non-zero basis functions:     1172 in task    11
  | Maximal number of non-zero basis functions:     1185 in task    12
  | Maximal number of non-zero basis functions:     1175 in task    13
  | Maximal number of non-zero basis functions:     1159 in task    14
  | Maximal number of non-zero basis functions:     1209 in task    15
  | Maximal number of non-zero basis functions:     1182 in task    16
  | Maximal number of non-zero basis functions:     1194 in task    17
  | Maximal number of non-zero basis functions:     1179 in task    18
  | Maximal number of non-zero basis functions:     1164 in task    19
  | Maximal number of non-zero basis functions:     1182 in task    20
  | Maximal number of non-zero basis functions:     1168 in task    21
  | Maximal number of non-zero basis functions:     1203 in task    22
  | Maximal number of non-zero basis functions:     1196 in task    23
  Allocating        0.586 MB for KS_eigenvector_complex
  Integrating Hamiltonian matrix: batch-based integration.
  Time summed over all CPUs for integration: real work       34.074 s, elapsed       35.025 s
  Integrating overlap matrix.
  Time summed over all CPUs for integration: real work       25.779 s, elapsed       26.581 s
  Decreasing sparse matrix size:
  | Tolerance:  0.1000E-12
  Hamiltonian matrix
  | Array has   505604 nonzero elements out of   639429 elements
  | Sparsity factor is 0.209
  Overlap matrix
  | Array has   472300 nonzero elements out of   639429 elements
  | Sparsity factor is 0.261
  New size of hamiltonian matrix:      507833

  Updating Kohn-Sham eigenvalues and eigenvectors using ELSI and the (modified) LAPACK eigensolver.
  Singularity check in k-point 24, task 0 (analysis for other k-points/tasks may follow below):
  Overlap matrix is not singular
  | Lowest and highest eigenvalues :  0.1377E-02,  0.8183E+01
  Finished singularity check of overlap matrix
  | Time :     0.022 s
  Starting LAPACK eigensolver
  Finished Cholesky decomposition
  | Time :     0.016 s
  Finished transformation to standard eigenproblem
  | Time :     0.003 s
  Finished solving standard eigenproblem
  | Time :     0.009 s
  Finished back-transformation of eigenvectors
  | Time :     0.000 s

  Obtaining occupation numbers and chemical potential using ELSI.
  | Chemical potential (Fermi level):    -5.20386866 eV
  Writing Kohn-Sham eigenvalues.
  K-point:       1 at    0.000000    0.000000    0.000000 (in units of recip. lattice)

  State    Occupation    Eigenvalue [Ha]    Eigenvalue [eV]
      1       2.00000        -745.362499       -20282.34556
      2       2.00000        -745.362499       -20282.34556
      3       2.00000        -103.306618        -2811.11610
      4       2.00000        -103.306618        -2811.11610
      5       2.00000         -92.326986        -2512.34511
      6       2.00000         -92.326986        -2512.34511
      7       2.00000         -92.326986        -2512.34511
      8       2.00000         -92.326986        -2512.34511
      9       2.00000         -92.326971        -2512.34472
     10       2.00000         -92.326971        -2512.34472
     11       2.00000         -88.712602        -2413.99272
     12       2.00000         -88.712602        -2413.99272
     13       2.00000         -88.712602        -2413.99272
     14       2.00000         -88.712602        -2413.99272
     15       2.00000         -17.536734         -477.19881
     16       2.00000         -17.536734         -477.19881
     17       2.00000         -13.956162         -379.76649
     18       2.00000         -13.956162         -379.76649
     19       2.00000         -13.956162         -379.76649
     20       2.00000         -13.956162         -379.76649
     21       2.00000         -13.956024         -379.76273
     22       2.00000         -13.956024         -379.76273
     23       2.00000          -8.139126         -221.47689
     24       2.00000          -8.139126         -221.47689
     25       2.00000          -8.139126         -221.47689
     26       2.00000          -8.139126         -221.47689
     27       2.00000          -8.139052         -221.47488
     28       2.00000          -8.139052         -221.47488
     29       2.00000          -8.139052         -221.47488
     30       2.00000          -8.139052         -221.47488
     31       2.00000          -8.138980         -221.47292
     32       2.00000          -8.138980         -221.47292
     33       2.00000          -7.816512         -212.69810
     34       2.00000          -7.816512         -212.69810
     35       2.00000          -7.816511         -212.69810
     36       2.00000          -7.816511         -212.69810
     37       2.00000          -5.786754         -157.46558
     38       2.00000          -5.786753         -157.46556
     39       2.00000          -5.786752         -157.46555
     40       2.00000          -5.786752         -157.46553
     41       2.00000          -5.786266         -157.45231
     42       2.00000          -5.786266         -157.45231
     43       2.00000          -5.786266         -157.45231
     44       2.00000          -5.786266         -157.45231
     45       2.00000          -5.786265         -157.45229
     46       2.00000          -5.786265         -157.45229
     47       2.00000          -5.786265         -157.45229
     48       2.00000          -5.786265         -157.45229
     49       2.00000          -2.394934          -65.16948
     50       2.00000          -2.394934          -65.16948
     51       2.00000          -1.455242          -39.59914
     52       2.00000          -1.455238          -39.59903
     53       2.00000          -1.444299          -39.30139
     54       2.00000          -1.444299          -39.30139
     55       2.00000          -1.444299          -39.30137
     56       2.00000          -1.444299          -39.30137
     57       2.00000          -0.785168          -21.36552
     58       2.00000          -0.775451          -21.10111
     59       2.00000          -0.740301          -20.14461
     60       2.00000          -0.724592          -19.71715
     61       2.00000          -0.475481          -12.93850
     62       2.00000          -0.432366          -11.76529
     63       2.00000          -0.362621           -9.86743
     64       2.00000          -0.325173           -8.84841
     65       2.00000          -0.325172           -8.84839
     66       2.00000          -0.324296           -8.82455
     67       2.00000          -0.324296           -8.82453
     68       2.00000          -0.289274           -7.87154
     69       2.00000          -0.289273           -7.87152
     70       2.00000          -0.286780           -7.80367
     71       2.00000          -0.286779           -7.80365
     72       2.00000          -0.278090           -7.56721
     73       2.00000          -0.236489           -6.43520
     74       2.00000          -0.194473           -5.29187
     75       0.00000          -0.125974           -3.42792
     76       0.00000          -0.125973           -3.42790
     77       0.00000          -0.125008           -3.40164
     78       0.00000          -0.125007           -3.40161
     79       0.00000          -0.124903           -3.39879
     80       0.00000          -0.124902           -3.39876
     81       0.00000          -0.119595           -3.25435
     82       0.00000          -0.119595           -3.25434
     83       0.00000          -0.012311           -0.33500
     84       0.00000          -0.010015           -0.27253
     85       0.00000           0.074505            2.02740
     86       0.00000           0.093537            2.54528
     87       0.00000           0.116176            3.16130
     88       0.00000           0.148417            4.03864
     89       0.00000           0.148418            4.03866
     90       0.00000           0.163254            4.44236
     91       0.00000           0.163254            4.44238
     92       0.00000           0.171004            4.65325
     93       0.00000           0.215454            5.86280
     94       0.00000           0.215455            5.86284
     95       0.00000           0.216918            5.90264
     96       0.00000           0.244849            6.66267
     97       0.00000           0.244850            6.66270

  What follows are estimated values for band gap, HOMO, LUMO, etc.
  | They are estimated on a discrete k-point grid and not necessarily exact.
  | For converged numbers, create a DOS and/or band structure plot on a denser k-grid.

  Highest occupied state (VBM) at     -5.29187289 eV (relative to internal zero)
  | Occupation number:      2.00000000
  | K-point:       1 at    0.000000    0.000000    0.000000 (in units of recip. lattice)

  Lowest unoccupied state (CBM) at    -4.39350750 eV (relative to internal zero)
  | Occupation number:      0.00000000
  | K-point:      39 at    0.400000    0.800000    0.000000 (in units of recip. lattice)

  ESTIMATED overall HOMO-LUMO gap:      0.89836540 eV between HOMO at k-point 1 and LUMO at k-point 39
  | This appears to be an indirect band gap.
  | Smallest direct gap :      1.86395586 eV for k_point 1 at    0.400000    0.800000    0.000000 (in units of recip. lattice)
  The gap value is above 0.2 eV. Unless you are using a very sparse k-point grid,
  this system is most likely an insulator or a semiconductor.
  Calculating total energy contributions from superposition of free atom densities.

  Total energy components:
  | Sum of eigenvalues            :       -5856.64563279 Ha     -159367.43619410 eV
  | XC energy correction          :        -351.36781271 Ha       -9561.20465265 eV
  | XC potential correction       :         456.86159110 Ha       12431.83641860 eV
  | Free-atom electrostatic energy:       -4024.01275950 Ha     -109498.95843159 eV
  | Hartree energy correction     :           0.00000000 Ha           0.00000000 eV
  | Entropy correction            :          -0.00000000 Ha          -0.00000000 eV
  | ---------------------------
  | Total energy                  :       -9775.16461390 Ha     -265995.76285974 eV
  | Total energy, T -> 0          :       -9775.16461390 Ha     -265995.76285974 eV  <-- do not rely on this value for anything but (periodic) metals
  | Electronic free energy        :       -9775.16461390 Ha     -265995.76285974 eV

  Derived energy quantities:
  | Kinetic energy                :       10036.75519672 Ha      273114.00479034 eV
  | Electrostatic energy          :      -19460.55199791 Ha     -529548.56299743 eV
  | Energy correction for multipole
  | error in Hartree potential    :           0.00000000 Ha           0.00000000 eV
  | Sum of eigenvalues per atom                           :      -26561.23936568 eV
  | Total energy (T->0) per atom                          :      -44332.62714329 eV  <-- do not rely on this value for anything but (periodic) metals
  | Electronic free energy per atom                       :      -44332.62714329 eV
  Initialize hartree_potential_storage
  Max. number of atoms included in rho_multipole:            6

  End scf initialization - timings             :  max(cpu_time)    wall_clock(cpu1)
  | Time for scf. initialization               :        3.725 s           3.771 s
  | Boundary condition initialization          :        0.125 s           0.126 s
  | Integration                                :        2.603 s           2.606 s
  | Solution of K.-S. eqns.                    :        0.083 s           0.106 s
  | Grid partitioning                          :        0.157 s           0.161 s
  | Preloading free-atom quantities on grid    :        0.023 s           0.024 s
  | Free-atom superposition energy             :        0.058 s           0.058 s
  | Total energy evaluation                    :        0.000 s           0.000 s

  Partial memory accounting:
  | Current value for overall tracked memory usage:
  |   Minimum:       10.273 MB (on task  0)
  |   Maximum:       10.566 MB (on task  1)
  |   Average:       10.310 MB
  | Peak value for overall tracked memory usage:
  |   Minimum:       25.689 MB (on task  9 after allocating wave)
  |   Maximum:       27.742 MB (on task  3 after allocating wave)
  |   Average:       26.819 MB
  | Largest tracked array allocation so far:
  |   Minimum:        9.639 MB (hamiltonian_shell on task  9)
  |   Maximum:       11.152 MB (hamiltonian_shell on task  3)
  |   Average:       10.577 MB
  Note:  These values currently only include a subset of arrays which are explicitly tracked.
  The "true" memory usage will be greater.
------------------------------------------------------------

------------------------------------------------------------
          Begin self-consistency iteration #    1

  Date     :  20200320, Time     :  120005.136
------------------------------------------------------------
  Evaluating new KS density using the density matrix
  Evaluating density matrix
  Time summed over all CPUs for getting density from density matrix: real work       61.216 s, elapsed       62.927 s
  Integration grid: deviation in total charge (<rho> - N_e) =  -4.860112E-12
  Pulay mixing of updated and previous charge densities.
  Renormalizing the density to the exact electron count on the 3D integration grid.
  | Formal number of electrons (from input files) :     148.0000000000
  | Integrated number of electrons on 3D grid     :     148.0001053130
  | Charge integration error                      :       0.0001053130
  | Normalization factor for density and gradient :       0.9999992884

  Evaluating partitioned Hartree potential by multipole expansion.
  | Original multipole sum: apparent total charge =   0.181285E-13
  | Sum of charges compensated after spline to logarithmic grids =   0.127297E-08
  | Analytical far-field extrapolation by fixed multipoles:
  | Hartree multipole sum: apparent total charge =   0.181147E-13
  Summing up the Hartree potential.
  Time summed over all CPUs for potential: real work       12.900 s, elapsed       13.088 s
  | RMS charge density error from multipole expansion :   0.147393E-03
  | Average real-space part of the electrostatic potential :     -0.00199478 eV

  Integrating Hamiltonian matrix: batch-based integration.
  Time summed over all CPUs for integration: real work       32.740 s, elapsed       33.864 s

  Updating Kohn-Sham eigenvalues and eigenvectors using ELSI and the (modified) LAPACK eigensolver.
  Starting LAPACK eigensolver
  Finished Cholesky decomposition
  | Time :     0.001 s
  Finished transformation to standard eigenproblem
  | Time :     0.003 s
  Finished solving standard eigenproblem
  | Time :     0.008 s
  Finished back-transformation of eigenvectors
  | Time :     0.001 s

  Obtaining occupation numbers and chemical potential using ELSI.
  | Chemical potential (Fermi level):    -5.23987037 eV
  Writing Kohn-Sham eigenvalues.
  K-point:       1 at    0.000000    0.000000    0.000000 (in units of recip. lattice)

  State    Occupation    Eigenvalue [Ha]    Eigenvalue [eV]
      1       2.00000        -745.370192       -20282.55490
      2       2.00000        -745.370192       -20282.55490
      3       2.00000        -103.314180        -2811.32187
      4       2.00000        -103.314180        -2811.32187
      5       2.00000         -92.334601        -2512.55234
      6       2.00000         -92.334601        -2512.55234
      7       2.00000         -92.334601        -2512.55234
      8       2.00000         -92.334601        -2512.55234
      9       2.00000         -92.334589        -2512.55201
     10       2.00000         -92.334589        -2512.55201
     11       2.00000         -88.709838        -2413.91751
     12       2.00000         -88.709838        -2413.91751
     13       2.00000         -88.709838        -2413.91751
     14       2.00000         -88.709838        -2413.91751
     15       2.00000         -17.543130         -477.37285
     16       2.00000         -17.543130         -477.37285
     17       2.00000         -13.962555         -379.94047
     18       2.00000         -13.962555         -379.94047
     19       2.00000         -13.962555         -379.94047
     20       2.00000         -13.962555         -379.94047
     21       2.00000         -13.962427         -379.93697
     22       2.00000         -13.962427         -379.93697
     23       2.00000          -8.145608         -221.65328
     24       2.00000          -8.145608         -221.65328
     25       2.00000          -8.145608         -221.65328
     26       2.00000          -8.145608         -221.65328
     27       2.00000          -8.145549         -221.65166
     28       2.00000          -8.145549         -221.65166
     29       2.00000          -8.145549         -221.65166
     30       2.00000          -8.145549         -221.65166
     31       2.00000          -8.145464         -221.64935
     32       2.00000          -8.145464         -221.64935
     33       2.00000          -7.814359         -212.63954
     34       2.00000          -7.814359         -212.63954
     35       2.00000          -7.814359         -212.63953
     36       2.00000          -7.814359         -212.63953
     37       2.00000          -5.784523         -157.40487
     38       2.00000          -5.784522         -157.40485
     39       2.00000          -5.784522         -157.40484
     40       2.00000          -5.784521         -157.40483
     41       2.00000          -5.784072         -157.39260
     42       2.00000          -5.784072         -157.39260
     43       2.00000          -5.784072         -157.39260
     44       2.00000          -5.784072         -157.39260
     45       2.00000          -5.784071         -157.39259
     46       2.00000          -5.784071         -157.39259
     47       2.00000          -5.784071         -157.39259
     48       2.00000          -5.784071         -157.39259
     49       2.00000          -2.399348          -65.28959
     50       2.00000          -2.399348          -65.28959
     51       2.00000          -1.459142          -39.70527
     52       2.00000          -1.459138          -39.70517
     53       2.00000          -1.448319          -39.41076
     54       2.00000          -1.448319          -39.41076
     55       2.00000          -1.448318          -39.41074
     56       2.00000          -1.448318          -39.41074
     57       2.00000          -0.784421          -21.34517
     58       2.00000          -0.774702          -21.08071
     59       2.00000          -0.739502          -20.12286
     60       2.00000          -0.723765          -19.69464
     61       2.00000          -0.475349          -12.93491
     62       2.00000          -0.432454          -11.76768
     63       2.00000          -0.361918           -9.84828
     64       2.00000          -0.325760           -8.86439
     65       2.00000          -0.325759           -8.86437
     66       2.00000          -0.324907           -8.84118
     67       2.00000          -0.324907           -8.84116
     68       2.00000          -0.289472           -7.87693
     69       2.00000          -0.289471           -7.87691
     70       2.00000          -0.287014           -7.81004
     71       2.00000          -0.287013           -7.81002
     72       2.00000          -0.277268           -7.54485
     73       2.00000          -0.237901           -6.47363
     74       2.00000          -0.195797           -5.32790
     75       0.00000          -0.126640           -3.44604
     76       0.00000          -0.126639           -3.44602
     77       0.00000          -0.126005           -3.42877
     78       0.00000          -0.126004           -3.42873
     79       0.00000          -0.125971           -3.42784
     80       0.00000          -0.125969           -3.42780
     81       0.00000          -0.120258           -3.27238
     82       0.00000          -0.120257           -3.27237
     83       0.00000          -0.012294           -0.33454
     84       0.00000          -0.009917           -0.26986
     85       0.00000           0.074995            2.04072
     86       0.00000           0.094053            2.55932
     87       0.00000           0.116077            3.15863
     88       0.00000           0.148734            4.04725
     89       0.00000           0.148734            4.04726
     90       0.00000           0.163539            4.45013
     91       0.00000           0.163540            4.45015
     92       0.00000           0.171680            4.67164
     93       0.00000           0.215871            5.87414
     94       0.00000           0.215872            5.87417
     95       0.00000           0.216303            5.88589
     96       0.00000           0.245042            6.66794
     97       0.00000           0.245044            6.66797

  What follows are estimated values for band gap, HOMO, LUMO, etc.
  | They are estimated on a discrete k-point grid and not necessarily exact.
  | For converged numbers, create a DOS and/or band structure plot on a denser k-grid.

  Highest occupied state (VBM) at     -5.32789744 eV (relative to internal zero)
  | Occupation number:      2.00000000
  | K-point:       1 at    0.000000    0.000000    0.000000 (in units of recip. lattice)

  Lowest unoccupied state (CBM) at    -4.42960433 eV (relative to internal zero)
  | Occupation number:      0.00000000
  | K-point:      39 at    0.400000    0.800000    0.000000 (in units of recip. lattice)

  ESTIMATED overall HOMO-LUMO gap:      0.89829310 eV between HOMO at k-point 1 and LUMO at k-point 39
  | This appears to be an indirect band gap.
  | Smallest direct gap :      1.88186109 eV for k_point 1 at    0.400000    0.800000    0.000000 (in units of recip. lattice)
  The gap value is above 0.2 eV. Unless you are using a very sparse k-point grid,
  this system is most likely an insulator or a semiconductor.

  Total energy components:
  | Sum of eigenvalues            :       -5856.99752453 Ha     -159377.01165543 eV
  | XC energy correction          :        -351.35868283 Ha       -9560.95621600 eV
  | XC potential correction       :         456.84954816 Ha       12431.50871366 eV
  | Free-atom electrostatic energy:       -4024.01275950 Ha     -109498.95843159 eV
  | Hartree energy correction     :           0.36467582 Ha           9.92333382 eV
  | Entropy correction            :          -0.00000000 Ha          -0.00000000 eV
  | ---------------------------
  | Total energy                  :       -9775.15474288 Ha     -265995.49425554 eV
  | Total energy, T -> 0          :       -9775.15474288 Ha     -265995.49425554 eV  <-- do not rely on this value for anything but (periodic) metals
  | Electronic free energy        :       -9775.15474288 Ha     -265995.49425554 eV

  Derived energy quantities:
  | Kinetic energy                :       10036.65301442 Ha      273111.22426851 eV
  | Electrostatic energy          :      -19460.44907447 Ha     -529545.76230805 eV
  | Energy correction for multipole
  | error in Hartree potential    :          -0.00006471 Ha          -0.00176088 eV
  | Sum of eigenvalues per atom                           :      -26562.83527590 eV
  | Total energy (T->0) per atom                          :      -44332.58237592 eV  <-- do not rely on this value for anything but (periodic) metals
  | Electronic free energy per atom                       :      -44332.58237592 eV

  Self-consistency convergence accuracy:
  | Change of charge density      :  0.3914E+00
  | Change of sum of eigenvalues  : -0.9575E+01 eV
  | Change of total energy        :  0.2686E+00 eV

  End self-consistency iteration #     1       :  max(cpu_time)    wall_clock(cpu1)
  | Time for this iteration                    :        4.999 s           5.000 s
  | Charge density update                      :        2.646 s           2.646 s
  | Density mixing & preconditioning           :        0.296 s           0.297 s
  | Hartree multipole update                   :        0.003 s           0.003 s
  | Hartree multipole summation                :        0.560 s           0.560 s
  | Integration                                :        1.437 s           1.440 s
  | Solution of K.-S. eqns.                    :        0.052 s           0.052 s
  | Total energy evaluation                    :        0.000 s           0.000 s

  Partial memory accounting:
  | Current value for overall tracked memory usage:
  |   Minimum:       10.273 MB (on task  0)
  |   Maximum:       10.566 MB (on task  1)
  |   Average:       10.310 MB
  | Peak value for overall tracked memory usage:
  |   Minimum:       26.395 MB (on task  9 after allocating gradient_basis_wave)
  |   Maximum:       28.691 MB (on task  3 after allocating gradient_basis_wave)
  |   Average:       27.677 MB
  | Largest tracked array allocation so far:
  |   Minimum:        9.639 MB (hamiltonian_shell on task  9)
  |   Maximum:       11.152 MB (hamiltonian_shell on task  3)
  |   Average:       10.577 MB
  Note:  These values currently only include a subset of arrays which are explicitly tracked.
  The "true" memory usage will be greater.
------------------------------------------------------------

------------------------------------------------------------
          Begin self-consistency iteration #    2

  Date     :  20200320, Time     :  120010.137
------------------------------------------------------------
  Evaluating new KS density using the density matrix
  Evaluating density matrix
  Time summed over all CPUs for getting density from density matrix: real work       61.053 s, elapsed       62.620 s
  Integration grid: deviation in total charge (<rho> - N_e) =  -4.803269E-12
  Pulay mixing of updated and previous charge densities.
  Renormalizing the density to the exact electron count on the 3D integration grid.
  | Formal number of electrons (from input files) :     148.0000000000
  | Integrated number of electrons on 3D grid     :     148.0019723469
  | Charge integration error                      :       0.0019723469
  | Normalization factor for density and gradient :       0.9999866735

  Evaluating partitioned Hartree potential by multipole expansion.
  | Original multipole sum: apparent total charge =   0.545824E-13
  | Sum of charges compensated after spline to logarithmic grids =  -0.113467E-06
  | Analytical far-field extrapolation by fixed multipoles:
  | Hartree multipole sum: apparent total charge =   0.552465E-13
  Summing up the Hartree potential.
  Time summed over all CPUs for potential: real work       15.078 s, elapsed       15.309 s
  | RMS charge density error from multipole expansion :   0.315382E-02
  | Average real-space part of the electrostatic potential :     -0.04165219 eV

  Integrating Hamiltonian matrix: batch-based integration.
  Time summed over all CPUs for integration: real work       32.762 s, elapsed       33.599 s

  Updating Kohn-Sham eigenvalues and eigenvectors using ELSI and the (modified) LAPACK eigensolver.
  Starting LAPACK eigensolver
  Finished Cholesky decomposition
  | Time :     0.001 s
  Finished transformation to standard eigenproblem
  | Time :     0.002 s
  Finished solving standard eigenproblem
  | Time :     0.008 s
  Finished back-transformation of eigenvectors
  | Time :     0.001 s

  Obtaining occupation numbers and chemical potential using ELSI.
  | Chemical potential (Fermi level):    -5.95671319 eV
  What follows are estimated values for band gap, HOMO, LUMO, etc.
  | They are estimated on a discrete k-point grid and not necessarily exact.
  | For converged numbers, create a DOS and/or band structure plot on a denser k-grid.

  Highest occupied state (VBM) at     -6.04474820 eV (relative to internal zero)
  | Occupation number:      2.00000000
  | K-point:       1 at    0.000000    0.000000    0.000000 (in units of recip. lattice)

  Lowest unoccupied state (CBM) at    -5.14891166 eV (relative to internal zero)
  | Occupation number:      0.00000000
  | K-point:      39 at    0.400000    0.800000    0.000000 (in units of recip. lattice)

  ESTIMATED overall HOMO-LUMO gap:      0.89583654 eV between HOMO at k-point 1 and LUMO at k-point 39
  | This appears to be an indirect band gap.
  | Smallest direct gap :      2.16964746 eV for k_point 30 at    0.400000    0.800000    0.000000 (in units of recip. lattice)
  The gap value is above 0.2 eV. Unless you are using a very sparse k-point grid,
  this system is most likely an insulator or a semiconductor.

  Total energy components:
  | Sum of eigenvalues            :       -5864.02203085 Ha     -159568.15819787 eV
  | XC energy correction          :        -351.18410827 Ha       -9556.20580052 eV
  | XC potential correction       :         456.61837422 Ha       12425.21815074 eV
  | Free-atom electrostatic energy:       -4024.01275950 Ha     -109498.95843159 eV
  | Hartree energy correction     :           7.53708926 Ha         205.09463378 eV
  | Entropy correction            :          -0.00000000 Ha          -0.00000000 eV
  | ---------------------------
  | Total energy                  :       -9775.06343514 Ha     -265993.00964546 eV
  | Total energy, T -> 0          :       -9775.06343514 Ha     -265993.00964546 eV  <-- do not rely on this value for anything but (periodic) metals
  | Electronic free energy        :       -9775.06343514 Ha     -265993.00964546 eV

  Derived energy quantities:
  | Kinetic energy                :       10034.52385526 Ha      273053.28689989 eV
  | Electrostatic energy          :      -19458.40318213 Ha     -529490.09074484 eV
  | Energy correction for multipole
  | error in Hartree potential    :          -0.00142263 Ha          -0.03871175 eV
  | Sum of eigenvalues per atom                           :      -26594.69303298 eV
  | Total energy (T->0) per atom                          :      -44332.16827424 eV  <-- do not rely on this value for anything but (periodic) metals
  | Electronic free energy per atom                       :      -44332.16827424 eV

  Self-consistency convergence accuracy:
  | Change of charge density      :  0.3745E+00
  | Change of sum of eigenvalues  : -0.1911E+03 eV
  | Change of total energy        :  0.2485E+01 eV

  End self-consistency iteration #     2       :  max(cpu_time)    wall_clock(cpu1)
  | Time for this iteration                    :        5.098 s           5.098 s
  | Charge density update                      :        2.633 s           2.633 s
  | Density mixing & preconditioning           :        0.342 s           0.342 s
  | Hartree multipole update                   :        0.003 s           0.003 s
  | Hartree multipole summation                :        0.652 s           0.652 s
  | Integration                                :        1.416 s           1.415 s
  | Solution of K.-S. eqns.                    :        0.052 s           0.052 s
  | Total energy evaluation                    :        0.000 s           0.000 s

  Partial memory accounting:
  | Current value for overall tracked memory usage:
  |   Minimum:       10.274 MB (on task  0)
  |   Maximum:       10.567 MB (on task  1)
  |   Average:       10.310 MB
  | Peak value for overall tracked memory usage:
  |   Minimum:       26.395 MB (on task  9 after allocating gradient_basis_wave)
  |   Maximum:       28.691 MB (on task  3 after allocating gradient_basis_wave)
  |   Average:       27.677 MB
  | Largest tracked array allocation so far:
  |   Minimum:        9.639 MB (hamiltonian_shell on task  9)
  |   Maximum:       11.152 MB (hamiltonian_shell on task  3)
  |   Average:       10.577 MB
  Note:  These values currently only include a subset of arrays which are explicitly tracked.
  The "true" memory usage will be greater.
------------------------------------------------------------

------------------------------------------------------------
          Begin self-consistency iteration #    3

  Date     :  20200320, Time     :  120015.235
------------------------------------------------------------
  Evaluating new KS density using the density matrix
  Evaluating density matrix
  Time summed over all CPUs for getting density from density matrix: real work       61.101 s, elapsed       62.883 s
  Integration grid: deviation in total charge (<rho> - N_e) =  -4.831691E-12
  Pulay mixing of updated and previous charge densities.
  Renormalizing the density to the exact electron count on the 3D integration grid.
  | Formal number of electrons (from input files) :     148.0000000000
  | Integrated number of electrons on 3D grid     :     147.9975711152
  | Charge integration error                      :      -0.0024288848
  | Normalization factor for density and gradient :       1.0000164117

  Evaluating partitioned Hartree potential by multipole expansion.
  | Original multipole sum: apparent total charge =   0.300215E-13
  | Sum of charges compensated after spline to logarithmic grids =  -0.155297E-07
  | Analytical far-field extrapolation by fixed multipoles:
  | Hartree multipole sum: apparent total charge =   0.303290E-13
  Summing up the Hartree potential.
  Time summed over all CPUs for potential: real work       14.481 s, elapsed       14.695 s
  | RMS charge density error from multipole expansion :   0.147326E-02
  | Average real-space part of the electrostatic potential :     -0.00934903 eV

  Integrating Hamiltonian matrix: batch-based integration.
  Time summed over all CPUs for integration: real work       32.832 s, elapsed       33.648 s

  Updating Kohn-Sham eigenvalues and eigenvectors using ELSI and the (modified) LAPACK eigensolver.
  Starting LAPACK eigensolver
  Finished Cholesky decomposition
  | Time :     0.001 s
  Finished transformation to standard eigenproblem
  | Time :     0.002 s
  Finished solving standard eigenproblem
  | Time :     0.008 s
  Finished back-transformation of eigenvectors
  | Time :     0.000 s

  Obtaining occupation numbers and chemical potential using ELSI.
  | Chemical potential (Fermi level):    -5.37687242 eV
  What follows are estimated values for band gap, HOMO, LUMO, etc.
  | They are estimated on a discrete k-point grid and not necessarily exact.
  | For converged numbers, create a DOS and/or band structure plot on a denser k-grid.

  Highest occupied state (VBM) at     -5.46492103 eV (relative to internal zero)
  | Occupation number:      2.00000000
  | K-point:       1 at    0.000000    0.000000    0.000000 (in units of recip. lattice)

  Lowest unoccupied state (CBM) at    -4.54849989 eV (relative to internal zero)
  | Occupation number:      0.00000000
  | K-point:      39 at    0.400000    0.800000    0.000000 (in units of recip. lattice)

  ESTIMATED overall HOMO-LUMO gap:      0.91642114 eV between HOMO at k-point 1 and LUMO at k-point 39
  | This appears to be an indirect band gap.
  | Smallest direct gap :      1.96056006 eV for k_point 1 at    0.400000    0.800000    0.000000 (in units of recip. lattice)
  The gap value is above 0.2 eV. Unless you are using a very sparse k-point grid,
  this system is most likely an insulator or a semiconductor.

  Checking to see if s.c.f. parameters should be adjusted.

  Total energy components:
  | Sum of eigenvalues            :       -5858.28690213 Ha     -159412.09740529 eV
[...]
  | RMS charge density error from multipole expansion :   0.667835E-02
  | Average real-space part of the electrostatic potential :     -0.04466097 eV

  Integrating Hamiltonian matrix: batch-based integration.
  Time summed over all CPUs for integration: real work       32.731 s, elapsed       33.551 s

  Updating Kohn-Sham eigenvalues and eigenvectors using ELSI and the (modified) LAPACK eigensolver.
  Starting LAPACK eigensolver
  Finished Cholesky decomposition
  | Time :     0.001 s
  Finished transformation to standard eigenproblem
  | Time :     0.002 s
  Finished solving standard eigenproblem
  | Time :     0.008 s
  Finished back-transformation of eigenvectors
  | Time :     0.001 s

  Obtaining occupation numbers and chemical potential using ELSI.
  | Chemical potential (Fermi level):    -5.87974247 eV
  What follows are estimated values for band gap, HOMO, LUMO, etc.
  | They are estimated on a discrete k-point grid and not necessarily exact.
  | For converged numbers, create a DOS and/or band structure plot on a denser k-grid.

  Highest occupied state (VBM) at     -5.96775725 eV (relative to internal zero)
  | Occupation number:      2.00000000
  | K-point:       1 at    0.000000    0.000000    0.000000 (in units of recip. lattice)

  Lowest unoccupied state (CBM) at    -5.05208847 eV (relative to internal zero)
  | Occupation number:      0.00000000
  | K-point:      15 at    0.200000    0.200000    0.000000 (in units of recip. lattice)

  ESTIMATED overall HOMO-LUMO gap:      0.91566878 eV between HOMO at k-point 1 and LUMO at k-point 15
  | This appears to be an indirect band gap.
  | Smallest direct gap :      2.16497841 eV for k_point 1 at    0.200000    0.200000    0.000000 (in units of recip. lattice)
  The gap value is above 0.2 eV. Unless you are using a very sparse k-point grid,
  this system is most likely an insulator or a semiconductor.

  Total energy components:
  | Sum of eigenvalues            :       -5862.89129068 Ha     -159537.38919242 eV
  | XC energy correction          :        -351.19812869 Ha       -9556.58731553 eV
  | XC potential correction       :         456.63262848 Ha       12425.60602883 eV
  | Free-atom electrostatic energy:       -4024.01275950 Ha     -109498.95843159 eV
  | Hartree energy correction     :           6.41204520 Ha         174.48062747 eV
  | Entropy correction            :          -0.00000000 Ha          -0.00000000 eV
  | ---------------------------
  | Total energy                  :       -9775.05750519 Ha     -265992.84828325 eV
  | Total energy, T -> 0          :       -9775.05750519 Ha     -265992.84828325 eV  <-- do not rely on this value for anything but (periodic) metals
  | Electronic free energy        :       -9775.05750519 Ha     -265992.84828325 eV

  Derived energy quantities:
  | Kinetic energy                :       10036.17454401 Ha      273098.20442605 eV
  | Electrostatic energy          :      -19460.03392050 Ha     -529534.46539377 eV
  | Energy correction for multipole
  | error in Hartree potential    :          -0.00326681 Ha          -0.08889437 eV
  | Sum of eigenvalues per atom                           :      -26589.56486540 eV
  | Total energy (T->0) per atom                          :      -44332.14138054 eV  <-- do not rely on this value for anything but (periodic) metals
  | Electronic free energy per atom                       :      -44332.14138054 eV

  Self-consistency convergence accuracy:
  | Change of charge density      :  0.8500E-06
  | Change of sum of eigenvalues  :  0.6012E-04 eV
  | Change of total energy        : -0.1089E-08 eV

  Preliminary charge convergence reached. Turning off preconditioner.

  Writing Kohn-Sham eigenvalues.
  K-point:       1 at    0.000000    0.000000    0.000000 (in units of recip. lattice)

  State    Occupation    Eigenvalue [Ha]    Eigenvalue [eV]
      1       2.00000        -745.470288       -20285.27863
      2       2.00000        -745.470288       -20285.27863
      3       2.00000        -103.425222        -2814.34347
      4       2.00000        -103.425222        -2814.34347
      5       2.00000         -92.444924        -2515.55438
      6       2.00000         -92.444924        -2515.55438
      7       2.00000         -92.444790        -2515.55072
      8       2.00000         -92.444790        -2515.55072
      9       2.00000         -92.444790        -2515.55071
     10       2.00000         -92.444790        -2515.55071
     11       2.00000         -88.681295        -2413.14081
     12       2.00000         -88.681295        -2413.14081
     13       2.00000         -88.681295        -2413.14081
     14       2.00000         -88.681295        -2413.14081
     15       2.00000         -17.647921         -480.22437
     16       2.00000         -17.647921         -480.22437
     17       2.00000         -14.067738         -382.80262
     18       2.00000         -14.067738         -382.80262
     19       2.00000         -14.066976         -382.78189
     20       2.00000         -14.066976         -382.78189
     21       2.00000         -14.066976         -382.78189
     22       2.00000         -14.066976         -382.78189
     23       2.00000          -8.251733         -224.54109
     24       2.00000          -8.251733         -224.54109
     25       2.00000          -8.251733         -224.54109
     26       2.00000          -8.251733         -224.54109
     27       2.00000          -8.251305         -224.52943
     28       2.00000          -8.251305         -224.52943
     29       2.00000          -8.250918         -224.51890
     30       2.00000          -8.250918         -224.51890
     31       2.00000          -8.250918         -224.51890
     32       2.00000          -8.250918         -224.51890
     33       2.00000          -7.787991         -211.92202
     34       2.00000          -7.787991         -211.92202
     35       2.00000          -7.787991         -211.92202
     36       2.00000          -7.787991         -211.92202
     37       2.00000          -5.758198         -156.68854
     38       2.00000          -5.758198         -156.68854
     39       2.00000          -5.758198         -156.68854
     40       2.00000          -5.758198         -156.68854
     41       2.00000          -5.758198         -156.68853
     42       2.00000          -5.758198         -156.68853
     43       2.00000          -5.758198         -156.68853
     44       2.00000          -5.758198         -156.68853
     45       2.00000          -5.756356         -156.63843
     46       2.00000          -5.756356         -156.63842
     47       2.00000          -5.756356         -156.63841
     48       2.00000          -5.756356         -156.63841
     49       2.00000          -2.479653          -67.47478
     50       2.00000          -2.479652          -67.47477
     51       2.00000          -1.529199          -41.61161
     52       2.00000          -1.529196          -41.61154
     53       2.00000          -1.520447          -41.37346
     54       2.00000          -1.520446          -41.37343
     55       2.00000          -1.520445          -41.37342
     56       2.00000          -1.520444          -41.37340
     57       2.00000          -0.767123          -20.87449
     58       2.00000          -0.756196          -20.57713
     59       2.00000          -0.724302          -19.70926
     60       2.00000          -0.706702          -19.23035
     61       2.00000          -0.470176          -12.79413
     62       2.00000          -0.430202          -11.70639
     63       2.00000          -0.348661           -9.48756
     64       2.00000          -0.334674           -9.10694
     65       2.00000          -0.334673           -9.10691
     66       2.00000          -0.334133           -9.09221
     67       2.00000          -0.334132           -9.09219
     68       2.00000          -0.294993           -8.02715
     69       2.00000          -0.294992           -8.02715
     70       2.00000          -0.293131           -7.97649
     71       2.00000          -0.293130           -7.97648
     72       2.00000          -0.262783           -7.15069
     73       2.00000          -0.260446           -7.08710
     74       2.00000          -0.219311           -5.96776
     75       0.00000          -0.139750           -3.80278
     76       0.00000          -0.139748           -3.80274
     77       0.00000          -0.138398           -3.76601
     78       0.00000          -0.138397           -3.76597
     79       0.00000          -0.135231           -3.67982
     80       0.00000          -0.135230           -3.67981
     81       0.00000          -0.128504           -3.49677
     82       0.00000          -0.128503           -3.49676
     83       0.00000          -0.004265           -0.11606
     84       0.00000           0.001767            0.04808
     85       0.00000           0.085969            2.33932
     86       0.00000           0.106755            2.90495
     87       0.00000           0.115492            3.14271
     88       0.00000           0.154783            4.21187
     89       0.00000           0.154784            4.21190
     90       0.00000           0.169727            4.61852
     91       0.00000           0.169728            4.61853
     92       0.00000           0.180539            4.91271
     93       0.00000           0.206186            5.61062
     94       0.00000           0.222975            6.06745
     95       0.00000           0.222975            6.06746
     96       0.00000           0.248210            6.75413
     97       0.00000           0.248210            6.75413

  What follows are estimated values for band gap, HOMO, LUMO, etc.
  | They are estimated on a discrete k-point grid and not necessarily exact.
  | For converged numbers, create a DOS and/or band structure plot on a denser k-grid.

  Highest occupied state (VBM) at     -5.96775725 eV (relative to internal zero)
  | Occupation number:      2.00000000
  | K-point:       1 at    0.000000    0.000000    0.000000 (in units of recip. lattice)

  Lowest unoccupied state (CBM) at    -5.05208847 eV (relative to internal zero)
  | Occupation number:      0.00000000
  | K-point:      15 at    0.200000    0.200000    0.000000 (in units of recip. lattice)

  ESTIMATED overall HOMO-LUMO gap:      0.91566878 eV between HOMO at k-point 1 and LUMO at k-point 15
  | This appears to be an indirect band gap.
  | Smallest direct gap :      2.16497841 eV for k_point 1 at    0.200000    0.200000    0.000000 (in units of recip. lattice)
  The gap value is above 0.2 eV. Unless you are using a very sparse k-point grid,
  this system is most likely an insulator or a semiconductor.

  Self-consistency cycle converged.

  End self-consistency iteration #    22       :  max(cpu_time)    wall_clock(cpu1)
  | Time for this iteration                    :        5.120 s           5.121 s
  | Charge density update                      :        2.635 s           2.635 s
  | Density mixing                             :        0.342 s           0.342 s
  | Hartree multipole update                   :        0.003 s           0.003 s
  | Hartree multipole summation                :        0.671 s           0.671 s
  | Integration                                :        1.415 s           1.415 s
  | Solution of K.-S. eqns.                    :        0.054 s           0.054 s
  | Total energy evaluation                    :        0.000 s           0.001 s

  Partial memory accounting:
  | Current value for overall tracked memory usage:
  |   Minimum:       10.274 MB (on task  0)
  |   Maximum:       10.567 MB (on task  1)
  |   Average:       10.311 MB
  | Peak value for overall tracked memory usage:
  |   Minimum:       26.396 MB (on task  9 after allocating gradient_basis_wave)
  |   Maximum:       28.692 MB (on task  3 after allocating gradient_basis_wave)
  |   Average:       27.678 MB
  | Largest tracked array allocation so far:
  |   Minimum:        9.639 MB (hamiltonian_shell on task  9)
  |   Maximum:       11.152 MB (hamiltonian_shell on task  3)
  |   Average:       10.577 MB
  Note:  These values currently only include a subset of arrays which are explicitly tracked.
  The "true" memory usage will be greater.
------------------------------------------------------------

  Energy and forces in a compact form:
  | Total energy uncorrected      :         -0.265992848283245E+06 eV
  | Total energy corrected        :         -0.265992848283245E+06 eV  <-- do not rely on this value for anything but (periodic) metals
  | Electronic free energy        :         -0.265992848283245E+06 eV

  ------------------------------------ 
  Start decomposition of the XC Energy 
  ------------------------------------ 
  X and C from original XC functional choice 
  Hartree-Fock Energy :          0.000000000 Ha              0.000000000 eV
  X Energy            :       -344.222777522 Ha          -9366.778352799 eV
  C Energy            :         -6.975351171 Ha           -189.808962731 eV
  Total XC Energy     :       -351.198128692 Ha          -9556.587315529 eV
  ------------------------------------ 
  LDA X and C from self-consistent density 
  X Energy LDA        :       -325.148639156 Ha          -8847.744639732 eV
  C Energy LDA        :        -12.821963005 Ha           -348.903365377 eV
  ------------------------------------ 
  End decomposition of the XC Energy 
  ------------------------------------ 

------------------------------------------------------------

------------------------------------------------------------------------------
  Final output of selected total energy values:

  The following output summarizes some interesting total energy values
  at the end of a run (AFTER all relaxation, molecular dynamics, etc.).

  | Total energy of the DFT / Hartree-Fock s.c.f. calculation      :        -265992.848283245 eV
  | Final zero-broadening corrected energy (caution - metals only) :        -265992.848283245 eV
  | For reference only, the value of 1 Hartree used in FHI-aims is :             27.211384500 eV
  | For reference only, the overall average (free atom contribution
  | + realspace contribution) of the electrostatic potential after
  | s.c.f. convergence is                                          :            -18.301085562 eV

  Before relying on these values, please be sure to understand exactly which
  total energy value is referred to by a given number. Different objects may
  all carry the same name 'total energy'. Definitions:

  Total energy of the DFT / Hartree-Fock s.c.f. calculation:
  | Note that this energy does not include ANY quantities calculated after the
  | s.c.f. cycle, in particular not ANY RPA, MP2, etc. many-body perturbation terms.

  Final zero-broadening corrected energy:
  | For metallic systems only, a broadening of the occupation numbers at the Fermi
  | level can be extrapolated back to zero broadening by an electron-gas inspired
  | formula. For all systems that are not real metals, this value can be
  | meaningless and should be avoided.

------------------------------------------------------------------------------
  Methods described in the following list of references were used in this FHI-aims run.
  If you publish the results, please make sure to cite these reference if they apply.
  FHI-aims is an academic code, and for our developers (often, Ph.D. students
  and postdocs), scientific credit in the community is essential.
  Thank you for helping us!

  For any use of FHI-aims, please cite:

    Volker Blum, Ralf Gehrke, Felix Hanke, Paula Havu, Ville Havu,
    Xinguo Ren, Karsten Reuter, and Matthias Scheffler
    'Ab initio molecular simulations with numeric atom-centered orbitals'
    Computer Physics Communications 180, 2175-2196 (2009)
    http://dx.doi.org/10.1016/j.cpc.2009.06.022


  The provided symmetry information was generated with SPGlib:

    Atsushi Togo, Yusuke Seto, Dimitar Pashov
    SPGlib 1.7.3 obtained from http://spglib.sourceforge.net
    Copyright (C) 2008 Atsushi Togo


  The ELSI infrastructure was used in your run to solve the Kohn-Sham electronic structure.
  Please check out http://elsi-interchange.org to learn more.
  If scalability is important for your project, please acknowledge ELSI by citing:

    V. W-z. Yu, F. Corsetti, A. Garcia, W. P. Huhn, M. Jacquelin, W. Jia,
    B. Lange, L. Lin, J. Lu, W. Mi, A. Seifitokaldani, A. Vazquez-Mayagoitia,
    C. Yang, H. Yang, and V. Blum
    'ELSI: A unified software interface for Kohn-Sham electronic structure solvers'
    Computer Physics Communications 222, 267-285 (2018).
    http://dx.doi.org/10.1016/j.cpc.2017.09.007


  For the real-space grid partitioning and parallelization used in this calculation, please cite:

    Ville Havu, Volker Blum, Paula Havu, and Matthias Scheffler,
    'Efficient O(N) integration for all-electron electronic structure calculation'
    'using numerically tabulated basis functions'
    Journal of Computational Physics 228, 8367-8379 (2009).
    http://dx.doi.org/10.1016/j.jcp.2009.08.008

  Of course, there are many other important community references, e.g., those cited in the
  above references. Our list is limited to references that describe implementations in the
  FHI-aims code. The reason is purely practical (length of this list) - please credit others as well.

------------------------------------------------------------
          Leaving FHI-aims.
          Date     :  20200320, Time     :  120157.731

          Computational steps:
          | Number of self-consistency cycles          :           22
          | Number of SCF (re)initializations          :            1

          Detailed time accounting                     :  max(cpu_time)    wall_clock(cpu1)
          | Total time                                 :      116.957 s         117.263 s
          | Preparation time                           :        0.495 s           0.530 s
          | Boundary condition initalization           :        0.125 s           0.126 s
          | Grid partitioning                          :        0.157 s           0.161 s
          | Preloading free-atom quantities on grid    :        0.023 s           0.024 s
          | Free-atom superposition energy             :        0.058 s           0.058 s
          | Total time for integrations                :       33.759 s          33.764 s
          | Total time for solution of K.-S. equations :        1.244 s           1.271 s
          | Total time for density update              :       57.993 s          57.993 s
          | Total time for mixing & preconditioning    :        7.470 s           7.474 s
          | Total time for Hartree multipole update    :        0.060 s           0.061 s
          | Total time for Hartree multipole sum       :       14.688 s          14.688 s
          | Total time for total energy evaluation     :        0.005 s           0.003 s
          | Total time for scaled ZORA corrections     :        0.000 s           0.000 s

          Partial memory accounting:
          | Residual value for overall tracked memory usage across tasks:     0.000000 MB (should be 0.000000 MB)
          | Peak values for overall tracked memory usage:
          |   Minimum:       26.396 MB (on task  9 after allocating gradient_basis_wave)
          |   Maximum:       28.692 MB (on task  3 after allocating gradient_basis_wave)
          |   Average:       27.678 MB
          | Largest tracked array allocation:
          |   Minimum:        9.639 MB (hamiltonian_shell on task  9)
          |   Maximum:       11.152 MB (hamiltonian_shell on task  3)
          |   Average:       10.577 MB
          Note:  These values currently only include a subset of arrays which are explicitly tracked.
          The "true" memory usage will be greater.

          Have a nice day.
------------------------------------------------------------
